LIGPARGEN GENERATED GRO FILE
   28
    1SiO    Si0    1   0.000   0.000   0.000
    1SiO    O02    2  -0.093   0.093  -0.093
    1SiO    O03    3   0.093  -0.093  -0.093
    1SiO    O04    4   0.093   0.093   0.093
    1SiO    Si1    5   0.185   0.185   0.185
    1SiO    O05    6   0.278   0.093   0.278
    1SiO    O06    7   0.093   0.278   0.278
    1SiO    O08    8   0.278   0.278   0.093
    1SiO    Si2    9   0.370   0.370   0.000
    1SiO    O0A   10   0.278   0.462  -0.093
    1SiO    O0B   11   0.462   0.278  -0.093
    1SiO    O0C   12   0.462   0.462   0.093
    1SiO    Si3   13   0.555   0.555   0.185
    1SiO    O09   14   0.647   0.647   0.093
    1SiO    O0F   15   0.462   0.647   0.278
    1SiO    Si4   16   0.370   0.740   0.370
    1SiO    O0H   17   0.278   0.647   0.462
    1SiO    Si5   18   0.185   0.555   0.555
    1SiO    H0J   19   0.093   0.647   0.647
    1SiO    H0K   20   0.278   0.462   0.647
    1SiO    O10   21   0.093   0.462   0.462
    1SiO    O0N   22   0.647   0.462   0.278
    1SiO    Si6   23   0.740   0.370   0.370
    1SiO    O0P   24   0.647   0.278   0.462
    1SiO    Si7   25   0.555   0.185   0.555
    1SiO    H0R   26   0.647   0.093   0.647
    1SiO    H0S   27   0.462   0.278   0.647
    1SiO    O11   28   0.462   0.093   0.462
   0.73987   0.73987   2.73987   0.00000   0.00000   0.00000   0.00000   0.00000   0.00000
