; SiO2 periodic unit GENERATED BY LigParGen Server - Jorgensen Lab @ Yale University 
;
[ atomtypes ]
  opls_826  H826     1.0080     0.000    A    2.50000E-01   1.25520E-01
  opls_810  H810     1.0080     0.000    A    2.50000E-01   1.25520E-01
  opls_800 Si800    28.0850     0.000    A    4.00000E-01   4.18400E-01
  opls_827  H827     1.0080     0.000    A    2.50000E-01   1.25520E-01
  opls_801  H801     1.0080     0.000    A    2.50000E-01   1.25520E-01
  opls_820  H820     1.0080     0.000    A    2.50000E-01   1.25520E-01
  opls_811  H811     1.0080     0.000    A    2.50000E-01   1.25520E-01
  opls_803  H803     1.0080     0.000    A    2.50000E-01   1.25520E-01
  opls_808  O808    15.9990     0.000    A    2.90000E-01   5.85760E-01
  opls_802  H802     1.0080     0.000    A    2.50000E-01   1.25520E-01
  opls_819  H819     1.0080     0.000    A    2.50000E-01   1.25520E-01
  opls_809  O809    15.9990     0.000    A    3.12000E-01   7.11280E-01
  opls_806  H808     1.0080     0.000    A    0.00000E+00   0.00000E+00


[ moleculetype ]
; Name               nrexcl
SiO                   3
[ atoms ]
;   nr       type  resnr residue  atom   cgnr     charge       mass  
     1   opls_800      1    SiO   Si0      1  0.0000    28.0850 
     2   opls_809      1    SiO   O09      1  0.0000    15.9990 
     3   opls_809      1    SiO   O11      1  0.0000    15.9990 
     4   opls_808      1    SiO   O04      1  0.0000    15.9990 
     5   opls_800      1    SiO   Si1      1  0.0000    28.0850 
     6   opls_808      1    SiO   O05      1  0.0000    15.9990 
     7   opls_808      1    SiO   O06      1  0.0000    15.9990 
     8   opls_808      1    SiO   O08      1  0.0000    15.9990 
     9   opls_800      1    SiO   Si2      1  0.0000    28.0850 
    10   opls_809      1    SiO   O13      1  0.0000    15.9990 
    11   opls_809      1    SiO   O14      1  0.0000    15.9990 
    12   opls_808      1    SiO   O0C      1  0.0000    15.9990 
    13   opls_800      1    SiO   Si3      1  0.0000    28.0850 
    14   opls_808      1    SiO   O09      1  0.0000    15.9990 
    15   opls_808      1    SiO   O0F      1  0.0000    15.9990 
    16   opls_800      1    SiO   Si4      1  0.0000    28.0850 
    17   opls_808      1    SiO   O0H      1  0.0000    15.9990 
    18   opls_800      1    SiO   Si5      1  0.0000    28.0850 
    19   opls_819      1    SiO   H0J      1  0.0000     1.0080 
    20   opls_820      1    SiO   H0K      1  0.0000     1.0080 
    21   opls_808      1    SiO   O10      1  0.0000    15.9990 
    22   opls_808      1    SiO   O0N      1  0.0000    15.9990 
    23   opls_800      1    SiO   Si6      1  0.0000    28.0850 
    24   opls_808      1    SiO   O0P      1  0.0000    15.9990 
    25   opls_800      1    SiO   Si7      1  0.0000    28.0850 
    26   opls_826      1    SiO   H0R      1  0.0000     1.0080
    27   opls_808      1    SiO   H0S      1  0.0000     1.0080
    28   opls_808      1    SiO   O11      1  0.0000    15.9990 	
    29   opls_806      1    SiO   Ha8      1  0.0000     1.0080 
    30   opls_806      1    SiO   Hb8      1  0.0000     1.0080 
    31   opls_806      1    SiO   Hc8      1  0.0000     1.0080 
    32   opls_806      1    SiO   Hd8      1  0.0000     1.0080

[ bonds ]
    2     1     1      0.1640 312963.200
    3     1     1      0.1640 312963.200
    4     1     1      0.1640 312963.200
    5     4     1      0.1640 312963.200
    6     5     1      0.1640 312963.200
    7     5     1      0.1640 312963.200
    8     5     1      0.1640 312963.200
    9     8     1      0.1640 312963.200
   10     9     1      0.1640 312963.200
   11     9     1      0.1640 312963.200
   12     9     1      0.1640 312963.200
   13    12     1      0.1640 312963.200
   14    13     1      0.1640 312963.200
   15    13     1      0.1640 312963.200
   16    15     1      0.1640 312963.200
   17    16     1      0.1640 312963.200
   18    17     1      0.1640 312963.200
   19    18     1      0.1480 138908.800
   20    18     1      0.1480 138908.800
   21    18     1      0.1640 312963.200
   22    13     1      0.1640 312963.200
   23    22     1      0.1640 312963.200
   24    23     1      0.1640 312963.200
   25    24     1      0.1640 312963.200
   26    25     1      0.1480 138908.800
   27    25     1      0.1480 138908.800
   28    25     1      0.1640 312963.200
   30    3      1      0.0945 462750.400
   29    2      1      0.0945 462750.400
   10    31     1      0.0945 462750.400
   11    32     1      0.0945 462750.400
   
[ angles ]
;  ai    aj    ak funct            c0            c1            c2            c3 
   1     4     5     1    180.000    167.360
   4     5     6     1    110.000    502.080
   4     5     7     1    110.000    502.080
   4     5     8     1    110.000    502.080
   5     8     9     1    180.000    167.360
   8     9    10     1    109.500    355.640
   8     9    11     1    109.500    355.640
   8     9    12     1    110.000    502.080
   9    12    13     1    180.000    167.360
  12    13    14     1    110.000    502.080
  12    13    15     1    110.000    502.080
  13    15    16     1    180.000    167.360
  15    16    17     1    110.000    502.080
  16    17    18     1    180.000    167.360
  17    18    19     1    109.500    355.640
  17    18    20     1    109.500    355.640
  19    18    20     1    109.500    292.880
  14    13    15     1    110.000    502.080
  10     9    11     1    109.500    292.880
   6     5     8     1    110.000    502.080
   2     1     3     1    109.500    292.880
   3     1     4     1    109.500    355.640
   2     1     4     1    109.500    355.640
  11     9    12     1    109.500    355.640
   6     5     7     1    110.000    502.080
   7     5     8     1    110.000    502.080
  10     9    12     1    109.500    355.640
  17    18    21     1    110.000    502.080
  12    13    22     1    110.000    502.080
  13    22    23     1    180.000    167.360
  22    23    24     1    110.000    502.080
  23    24    25     1    180.000    167.360
  24    25    26     1    109.500    355.640
  24    25    27     1    109.500    355.640
  24    25    28     1    110.000    502.080
  15    13    22     1    110.000    502.080
  26    25    27     1    109.500    292.880
  26    25    27     1    109.500    292.880 
  14    13    22     1    109.500    355.640
  28    25    27     1    109.500    355.640
  20    18    21     1    109.500    355.640
  19    18    21     1    109.500    355.640
  31    10    9      1    110.930    390.367
  32    11    9      1    110.930    390.367
  29    2     1      1    110.930    390.367
  30    3     1      1    110.930    390.367
  
[ dihedrals ]
; IMPROPER DIHEDRAL ANGLES 
;  ai    aj    ak    al funct            c0            c1            c2            c3            c4            c5
  8   	9	 10     31     3    1.569  -1.569   0.000  -0.000  -0.000   0.000
  12    9	 11     32     3    1.569  -1.569   0.000  -0.000  -0.000   0.000
  4     1    2      29     3    1.569  -1.569   0.000  -0.000  -0.000   0.000 
  4     1    3      30     3    1.569  -1.569   0.000  -0.000  -0.000   0.000 
  
[ dihedrals ]
; PROPER DIHEDRAL ANGLES
;  ai    aj    ak    al funct            c0            c1            c2            c3            c4            c5

