;SiO2 001 face topology developed by ChamikaraK University of California Merced | 

[ atomtypes ]
opls_826	H826	1.0080	0.000	A	2.50000E-01	1.25520E-01
opls_810	H810	1.0080	0.000	A	2.50000E-01	1.25520E-01
opls_800	Si800	28.0850	0.000	A	4.00000E-01	4.18400E-01
opls_827	H827	1.0080	0.000	A	2.50000E-01	1.25520E-01
opls_801	H801	1.0080	0.000	A	2.50000E-01	1.25520E-01
opls_820	H820	1.0080	0.000	A	2.50000E-01	1.25520E-01
opls_811	H811	1.0080	0.000	A	2.50000E-01	1.25520E-01
opls_803	H803	1.0080	0.000	A	2.50000E-01	1.25520E-01
opls_808	O808	15.9990	0.000	A	2.90000E-01	5.85760E-01
opls_802	H802	1.0080	0.000	A	2.50000E-01	1.25520E-01
opls_819	H819	1.0080	0.000	A	2.50000E-01	1.25520E-01
opls_809	O809	15.9990	0.000	A	3.12000E-01	7.11280E-01
opls_806	H808	1.0080	0.000	A	0.00000E+00	0.00000E+00
						
						
[ moleculetype ]
; Name               nrexcl
SiO                   3

[ atoms ]
1	opls_800	1	SiO	Si0	1	0.0000	28.0850
2	opls_809	1	SiO	O0X	1	-0.3274	15.9990
3	opls_809	1	SiO	O11	1	0.0000	15.9990
4	opls_808	1	SiO	O04	1	0.0000	15.9990
5	opls_800	1	SiO	Si1	1	0.0000	28.0850
6	opls_808	1	SiO	O05	1	0.0000	15.9990
7	opls_808	1	SiO	O06	1	0.0000	15.9990
8	opls_808	1	SiO	O08	1	0.0000	15.9990
9	opls_800	1	SiO	Si2	1	0.0000	28.0850
10	opls_809	1	SiO	O13	1	0.0000	15.9990
11	opls_809	1	SiO	O14	1	0.0000	15.9990
12	opls_808	1	SiO	O0C	1	0.0000	15.9990
13	opls_800	1	SiO	Si3	1	0.0000	28.0850
14	opls_808	1	SiO	O09	1	0.0000	15.9990
15	opls_808	1	SiO	O0F	1	0.0000	15.9990
16	opls_800	1	SiO	Si4	1	0.0000	28.0850
17	opls_808	1	SiO	O0H	1	0.0000	15.9990
18	opls_800	1	SiO	Si5	1	0.0000	28.0850
19	opls_819	1	SiO	H0J	1	0.0000	1.0080
20	opls_820	1	SiO	H0K	1	0.0000	1.0080
21	opls_808	1	SiO	O10	1	0.0000	15.9990
22	opls_808	1	SiO	O0N	1	0.0000	15.9990
23	opls_800	1	SiO	Si6	1	0.0000	28.0850
24	opls_808	1	SiO	O0P	1	0.0000	15.9990
25	opls_800	1	SiO	Si7	1	0.0000	28.0850
26	opls_826	1	SiO	H0R	1	0.0000	1.0080
27	opls_808	1	SiO	H0S	1	0.0000	1.0080
28	opls_808	1	SiO	O11	1	0.0000	15.9990
29	opls_800	1	SiO	Si0	1	0.0000	28.0850
30	opls_809	1	SiO	O0X	1	-0.3274	15.9990
31	opls_809	1	SiO	O11	1	0.0000	15.9990
32	opls_808	1	SiO	O04	1	0.0000	15.9990
33	opls_800	1	SiO	Si1	1	0.0000	28.0850
34	opls_808	1	SiO	O05	1	0.0000	15.9990
35	opls_808	1	SiO	O06	1	0.0000	15.9990
36	opls_808	1	SiO	O08	1	0.0000	15.9990
37	opls_800	1	SiO	Si2	1	0.0000	28.0850
38	opls_809	1	SiO	O13	1	0.0000	15.9990
39	opls_809	1	SiO	O14	1	0.0000	15.9990
40	opls_808	1	SiO	O0C	1	0.0000	15.9990
41	opls_800	1	SiO	Si3	1	0.0000	28.0850
42	opls_808	1	SiO	O09	1	0.0000	15.9990
43	opls_808	1	SiO	O0F	1	0.0000	15.9990
44	opls_800	1	SiO	Si4	1	0.0000	28.0850
45	opls_808	1	SiO	O0H	1	0.0000	15.9990
46	opls_800	1	SiO	Si5	1	0.0000	28.0850
47	opls_819	1	SiO	H0J	1	0.0000	1.0080
48	opls_820	1	SiO	H0K	1	0.0000	1.0080
49	opls_808	1	SiO	O10	1	0.0000	15.9990
50	opls_808	1	SiO	O0N	1	0.0000	15.9990
51	opls_800	1	SiO	Si6	1	0.0000	28.0850
52	opls_808	1	SiO	O0P	1	0.0000	15.9990
53	opls_800	1	SiO	Si7	1	0.0000	28.0850
54	opls_826	1	SiO	H0R	1	0.0000	1.0080
55	opls_808	1	SiO	H0S	1	0.0000	1.0080
56	opls_808	1	SiO	O11	1	0.0000	15.9990
57	opls_800	1	SiO	Si0	1	0.0000	28.0850
58	opls_809	1	SiO	O0X	1	-0.3274	15.9990
59	opls_809	1	SiO	O11	1	0.0000	15.9990
60	opls_808	1	SiO	O04	1	0.0000	15.9990
61	opls_800	1	SiO	Si1	1	0.0000	28.0850
62	opls_808	1	SiO	O05	1	0.0000	15.9990
63	opls_808	1	SiO	O06	1	0.0000	15.9990
64	opls_808	1	SiO	O08	1	0.0000	15.9990
65	opls_800	1	SiO	Si2	1	0.0000	28.0850
66	opls_809	1	SiO	O13	1	0.0000	15.9990
67	opls_809	1	SiO	O14	1	0.0000	15.9990
68	opls_808	1	SiO	O0C	1	0.0000	15.9990
69	opls_800	1	SiO	Si3	1	0.0000	28.0850
70	opls_808	1	SiO	O09	1	0.0000	15.9990
71	opls_808	1	SiO	O0F	1	0.0000	15.9990
72	opls_800	1	SiO	Si4	1	0.0000	28.0850
73	opls_808	1	SiO	O0H	1	0.0000	15.9990
74	opls_800	1	SiO	Si5	1	0.0000	28.0850
75	opls_819	1	SiO	H0J	1	0.0000	1.0080
76	opls_820	1	SiO	H0K	1	0.0000	1.0080
77	opls_808	1	SiO	O10	1	0.0000	15.9990
78	opls_808	1	SiO	O0N	1	0.0000	15.9990
79	opls_800	1	SiO	Si6	1	0.0000	28.0850
80	opls_808	1	SiO	O0P	1	0.0000	15.9990
81	opls_800	1	SiO	Si7	1	0.0000	28.0850
82	opls_826	1	SiO	H0R	1	0.0000	1.0080
83	opls_808	1	SiO	H0S	1	0.0000	1.0080
84	opls_808	1	SiO	O11	1	0.0000	15.9990
85	opls_800	1	SiO	Si0	1	0.0000	28.0850
86	opls_809	1	SiO	O0X	1	-0.3274	15.9990
87	opls_809	1	SiO	O11	1	0.0000	15.9990
88	opls_808	1	SiO	O04	1	0.0000	15.9990
89	opls_800	1	SiO	Si1	1	0.0000	28.0850
90	opls_808	1	SiO	O05	1	0.0000	15.9990
91	opls_808	1	SiO	O06	1	0.0000	15.9990
92	opls_808	1	SiO	O08	1	0.0000	15.9990
93	opls_800	1	SiO	Si2	1	0.0000	28.0850
94	opls_809	1	SiO	O13	1	0.0000	15.9990
95	opls_809	1	SiO	O14	1	0.0000	15.9990
96	opls_808	1	SiO	O0C	1	0.0000	15.9990
97	opls_800	1	SiO	Si3	1	0.0000	28.0850
98	opls_808	1	SiO	O09	1	0.0000	15.9990
99	opls_808	1	SiO	O0F	1	0.0000	15.9990
100	opls_800	1	SiO	Si4	1	0.0000	28.0850
101	opls_808	1	SiO	O0H	1	0.0000	15.9990
102	opls_800	1	SiO	Si5	1	0.0000	28.0850
103	opls_819	1	SiO	H0J	1	0.0000	1.0080
104	opls_820	1	SiO	H0K	1	0.0000	1.0080
105	opls_808	1	SiO	O10	1	0.0000	15.9990
106	opls_808	1	SiO	O0N	1	0.0000	15.9990
107	opls_800	1	SiO	Si6	1	0.0000	28.0850
108	opls_808	1	SiO	O0P	1	0.0000	15.9990
109	opls_800	1	SiO	Si7	1	0.0000	28.0850
110	opls_826	1	SiO	H0R	1	0.0000	1.0080
111	opls_808	1	SiO	H0S	1	0.0000	1.0080
112	opls_808	1	SiO	O11	1	0.0000	15.9990
113	opls_800	1	SiO	Si0	1	0.0000	28.0850
114	opls_809	1	SiO	O0X	1	-0.3274	15.9990
115	opls_809	1	SiO	O11	1	0.0000	15.9990
116	opls_808	1	SiO	O04	1	0.0000	15.9990
117	opls_800	1	SiO	Si1	1	0.0000	28.0850
118	opls_808	1	SiO	O05	1	0.0000	15.9990
119	opls_808	1	SiO	O06	1	0.0000	15.9990
120	opls_808	1	SiO	O08	1	0.0000	15.9990
121	opls_800	1	SiO	Si2	1	0.0000	28.0850
122	opls_809	1	SiO	O13	1	0.0000	15.9990
123	opls_809	1	SiO	O14	1	0.0000	15.9990
124	opls_808	1	SiO	O0C	1	0.0000	15.9990
125	opls_800	1	SiO	Si3	1	0.0000	28.0850
126	opls_808	1	SiO	O09	1	0.0000	15.9990
127	opls_808	1	SiO	O0F	1	0.0000	15.9990
128	opls_800	1	SiO	Si4	1	0.0000	28.0850
129	opls_808	1	SiO	O0H	1	0.0000	15.9990
130	opls_800	1	SiO	Si5	1	0.0000	28.0850
131	opls_819	1	SiO	H0J	1	0.0000	1.0080
132	opls_820	1	SiO	H0K	1	0.0000	1.0080
133	opls_808	1	SiO	O10	1	0.0000	15.9990
134	opls_808	1	SiO	O0N	1	0.0000	15.9990
135	opls_800	1	SiO	Si6	1	0.0000	28.0850
136	opls_808	1	SiO	O0P	1	0.0000	15.9990
137	opls_800	1	SiO	Si7	1	0.0000	28.0850
138	opls_826	1	SiO	H0R	1	0.0000	1.0080
139	opls_808	1	SiO	H0S	1	0.0000	1.0080
140	opls_808	1	SiO	O11	1	0.0000	15.9990
141	opls_800	1	SiO	Si0	1	0.0000	28.0850
142	opls_809	1	SiO	O0X	1	-0.3274	15.9990
143	opls_809	1	SiO	O11	1	0.0000	15.9990
144	opls_808	1	SiO	O04	1	0.0000	15.9990
145	opls_800	1	SiO	Si1	1	0.0000	28.0850
146	opls_808	1	SiO	O05	1	0.0000	15.9990
147	opls_808	1	SiO	O06	1	0.0000	15.9990
148	opls_808	1	SiO	O08	1	0.0000	15.9990
149	opls_800	1	SiO	Si2	1	0.0000	28.0850
150	opls_809	1	SiO	O13	1	0.0000	15.9990
151	opls_809	1	SiO	O14	1	0.0000	15.9990
152	opls_808	1	SiO	O0C	1	0.0000	15.9990
153	opls_800	1	SiO	Si3	1	0.0000	28.0850
154	opls_808	1	SiO	O09	1	0.0000	15.9990
155	opls_808	1	SiO	O0F	1	0.0000	15.9990
156	opls_800	1	SiO	Si4	1	0.0000	28.0850
157	opls_808	1	SiO	O0H	1	0.0000	15.9990
158	opls_800	1	SiO	Si5	1	0.0000	28.0850
159	opls_819	1	SiO	H0J	1	0.0000	1.0080
160	opls_820	1	SiO	H0K	1	0.0000	1.0080
161	opls_808	1	SiO	O10	1	0.0000	15.9990
162	opls_808	1	SiO	O0N	1	0.0000	15.9990
163	opls_800	1	SiO	Si6	1	0.0000	28.0850
164	opls_808	1	SiO	O0P	1	0.0000	15.9990
165	opls_800	1	SiO	Si7	1	0.0000	28.0850
166	opls_826	1	SiO	H0R	1	0.0000	1.0080
167	opls_808	1	SiO	H0S	1	0.0000	1.0080
168	opls_808	1	SiO	O11	1	0.0000	15.9990
169	opls_800	1	SiO	Si0	1	0.0000	28.0850
170	opls_809	1	SiO	O0X	1	-0.3274	15.9990
171	opls_809	1	SiO	O11	1	0.0000	15.9990
172	opls_808	1	SiO	O04	1	0.0000	15.9990
173	opls_800	1	SiO	Si1	1	0.0000	28.0850
174	opls_808	1	SiO	O05	1	0.0000	15.9990
175	opls_808	1	SiO	O06	1	0.0000	15.9990
176	opls_808	1	SiO	O08	1	0.0000	15.9990
177	opls_800	1	SiO	Si2	1	0.0000	28.0850
178	opls_809	1	SiO	O13	1	0.0000	15.9990
179	opls_809	1	SiO	O14	1	0.0000	15.9990
180	opls_808	1	SiO	O0C	1	0.0000	15.9990
181	opls_800	1	SiO	Si3	1	0.0000	28.0850
182	opls_808	1	SiO	O09	1	0.0000	15.9990
183	opls_808	1	SiO	O0F	1	0.0000	15.9990
184	opls_800	1	SiO	Si4	1	0.0000	28.0850
185	opls_808	1	SiO	O0H	1	0.0000	15.9990
186	opls_800	1	SiO	Si5	1	0.0000	28.0850
187	opls_819	1	SiO	H0J	1	0.0000	1.0080
188	opls_820	1	SiO	H0K	1	0.0000	1.0080
189	opls_808	1	SiO	O10	1	0.0000	15.9990
190	opls_808	1	SiO	O0N	1	0.0000	15.9990
191	opls_800	1	SiO	Si6	1	0.0000	28.0850
192	opls_808	1	SiO	O0P	1	0.0000	15.9990
193	opls_800	1	SiO	Si7	1	0.0000	28.0850
194	opls_826	1	SiO	H0R	1	0.0000	1.0080
195	opls_808	1	SiO	H0S	1	0.0000	1.0080
196	opls_808	1	SiO	O11	1	0.0000	15.9990
197	opls_800	1	SiO	Si0	1	0.0000	28.0850
198	opls_809	1	SiO	O0X	1	-0.3274	15.9990
199	opls_809	1	SiO	O11	1	0.0000	15.9990
200	opls_808	1	SiO	O04	1	0.0000	15.9990
201	opls_800	1	SiO	Si1	1	0.0000	28.0850
202	opls_808	1	SiO	O05	1	0.0000	15.9990
203	opls_808	1	SiO	O06	1	0.0000	15.9990
204	opls_808	1	SiO	O08	1	0.0000	15.9990
205	opls_800	1	SiO	Si2	1	0.0000	28.0850
206	opls_809	1	SiO	O13	1	0.0000	15.9990
207	opls_809	1	SiO	O14	1	0.0000	15.9990
208	opls_808	1	SiO	O0C	1	0.0000	15.9990
209	opls_800	1	SiO	Si3	1	0.0000	28.0850
210	opls_808	1	SiO	O09	1	0.0000	15.9990
211	opls_808	1	SiO	O0F	1	0.0000	15.9990
212	opls_800	1	SiO	Si4	1	0.0000	28.0850
213	opls_808	1	SiO	O0H	1	0.0000	15.9990
214	opls_800	1	SiO	Si5	1	0.0000	28.0850
215	opls_819	1	SiO	H0J	1	0.0000	1.0080
216	opls_820	1	SiO	H0K	1	0.0000	1.0080
217	opls_808	1	SiO	O10	1	0.0000	15.9990
218	opls_808	1	SiO	O0N	1	0.0000	15.9990
219	opls_800	1	SiO	Si6	1	0.0000	28.0850
220	opls_808	1	SiO	O0P	1	0.0000	15.9990
221	opls_800	1	SiO	Si7	1	0.0000	28.0850
222	opls_826	1	SiO	H0R	1	0.0000	1.0080
223	opls_808	1	SiO	H0S	1	0.0000	1.0080
224	opls_808	1	SiO	O11	1	0.0000	15.9990
225	opls_800	1	SiO	Si0	1	0.0000	28.0850
226	opls_809	1	SiO	O0X	1	-0.3274	15.9990
227	opls_809	1	SiO	O11	1	0.0000	15.9990
228	opls_808	1	SiO	O04	1	0.0000	15.9990
229	opls_800	1	SiO	Si1	1	0.0000	28.0850
230	opls_808	1	SiO	O05	1	0.0000	15.9990
231	opls_808	1	SiO	O06	1	0.0000	15.9990
232	opls_808	1	SiO	O08	1	0.0000	15.9990
233	opls_800	1	SiO	Si2	1	0.0000	28.0850
234	opls_809	1	SiO	O13	1	0.0000	15.9990
235	opls_809	1	SiO	O14	1	0.0000	15.9990
236	opls_808	1	SiO	O0C	1	0.0000	15.9990
237	opls_800	1	SiO	Si3	1	0.0000	28.0850
238	opls_808	1	SiO	O09	1	0.0000	15.9990
239	opls_808	1	SiO	O0F	1	0.0000	15.9990
240	opls_800	1	SiO	Si4	1	0.0000	28.0850
241	opls_808	1	SiO	O0H	1	0.0000	15.9990
242	opls_800	1	SiO	Si5	1	0.0000	28.0850
243	opls_819	1	SiO	H0J	1	0.0000	1.0080
244	opls_820	1	SiO	H0K	1	0.0000	1.0080
245	opls_808	1	SiO	O10	1	0.0000	15.9990
246	opls_808	1	SiO	O0N	1	0.0000	15.9990
247	opls_800	1	SiO	Si6	1	0.0000	28.0850
248	opls_808	1	SiO	O0P	1	0.0000	15.9990
249	opls_800	1	SiO	Si7	1	0.0000	28.0850
250	opls_826	1	SiO	H0R	1	0.0000	1.0080
251	opls_808	1	SiO	H0S	1	0.0000	1.0080
252	opls_808	1	SiO	O11	1	0.0000	15.9990
253	opls_800	1	SiO	Si0	1	0.0000	28.0850
254	opls_809	1	SiO	O0X	1	-0.3274	15.9990
255	opls_809	1	SiO	O11	1	0.0000	15.9990
256	opls_808	1	SiO	O04	1	0.0000	15.9990
257	opls_800	1	SiO	Si1	1	0.0000	28.0850
258	opls_808	1	SiO	O05	1	0.0000	15.9990
259	opls_808	1	SiO	O06	1	0.0000	15.9990
260	opls_808	1	SiO	O08	1	0.0000	15.9990
261	opls_800	1	SiO	Si2	1	0.0000	28.0850
262	opls_809	1	SiO	O13	1	0.0000	15.9990
263	opls_809	1	SiO	O14	1	0.0000	15.9990
264	opls_808	1	SiO	O0C	1	0.0000	15.9990
265	opls_800	1	SiO	Si3	1	0.0000	28.0850
266	opls_808	1	SiO	O09	1	0.0000	15.9990
267	opls_808	1	SiO	O0F	1	0.0000	15.9990
268	opls_800	1	SiO	Si4	1	0.0000	28.0850
269	opls_808	1	SiO	O0H	1	0.0000	15.9990
270	opls_800	1	SiO	Si5	1	0.0000	28.0850
271	opls_819	1	SiO	H0J	1	0.0000	1.0080
272	opls_820	1	SiO	H0K	1	0.0000	1.0080
273	opls_808	1	SiO	O10	1	0.0000	15.9990
274	opls_808	1	SiO	O0N	1	0.0000	15.9990
275	opls_800	1	SiO	Si6	1	0.0000	28.0850
276	opls_808	1	SiO	O0P	1	0.0000	15.9990
277	opls_800	1	SiO	Si7	1	0.0000	28.0850
278	opls_826	1	SiO	H0R	1	0.0000	1.0080
279	opls_808	1	SiO	H0S	1	0.0000	1.0080
280	opls_808	1	SiO	O11	1	0.0000	15.9990
281	opls_800	1	SiO	Si0	1	0.0000	28.0850
282	opls_809	1	SiO	O0X	1	-0.3274	15.9990
283	opls_809	1	SiO	O11	1	0.0000	15.9990
284	opls_808	1	SiO	O04	1	0.0000	15.9990
285	opls_800	1	SiO	Si1	1	0.0000	28.0850
286	opls_808	1	SiO	O05	1	0.0000	15.9990
287	opls_808	1	SiO	O06	1	0.0000	15.9990
288	opls_808	1	SiO	O08	1	0.0000	15.9990
289	opls_800	1	SiO	Si2	1	0.0000	28.0850
290	opls_809	1	SiO	O13	1	0.0000	15.9990
291	opls_809	1	SiO	O14	1	0.0000	15.9990
292	opls_808	1	SiO	O0C	1	0.0000	15.9990
293	opls_800	1	SiO	Si3	1	0.0000	28.0850
294	opls_808	1	SiO	O09	1	0.0000	15.9990
295	opls_808	1	SiO	O0F	1	0.0000	15.9990
296	opls_800	1	SiO	Si4	1	0.0000	28.0850
297	opls_808	1	SiO	O0H	1	0.0000	15.9990
298	opls_800	1	SiO	Si5	1	0.0000	28.0850
299	opls_819	1	SiO	H0J	1	0.0000	1.0080
300	opls_820	1	SiO	H0K	1	0.0000	1.0080
301	opls_808	1	SiO	O10	1	0.0000	15.9990
302	opls_808	1	SiO	O0N	1	0.0000	15.9990
303	opls_800	1	SiO	Si6	1	0.0000	28.0850
304	opls_808	1	SiO	O0P	1	0.0000	15.9990
305	opls_800	1	SiO	Si7	1	0.0000	28.0850
306	opls_826	1	SiO	H0R	1	0.0000	1.0080
307	opls_808	1	SiO	H0S	1	0.0000	1.0080
308	opls_808	1	SiO	O11	1	0.0000	15.9990
309	opls_800	1	SiO	Si0	1	0.0000	28.0850
310	opls_809	1	SiO	O0X	1	-0.3274	15.9990
311	opls_809	1	SiO	O11	1	0.0000	15.9990
312	opls_808	1	SiO	O04	1	0.0000	15.9990
313	opls_800	1	SiO	Si1	1	0.0000	28.0850
314	opls_808	1	SiO	O05	1	0.0000	15.9990
315	opls_808	1	SiO	O06	1	0.0000	15.9990
316	opls_808	1	SiO	O08	1	0.0000	15.9990
317	opls_800	1	SiO	Si2	1	0.0000	28.0850
318	opls_809	1	SiO	O13	1	0.0000	15.9990
319	opls_809	1	SiO	O14	1	0.0000	15.9990
320	opls_808	1	SiO	O0C	1	0.0000	15.9990
321	opls_800	1	SiO	Si3	1	0.0000	28.0850
322	opls_808	1	SiO	O09	1	0.0000	15.9990
323	opls_808	1	SiO	O0F	1	0.0000	15.9990
324	opls_800	1	SiO	Si4	1	0.0000	28.0850
325	opls_808	1	SiO	O0H	1	0.0000	15.9990
326	opls_800	1	SiO	Si5	1	0.0000	28.0850
327	opls_819	1	SiO	H0J	1	0.0000	1.0080
328	opls_820	1	SiO	H0K	1	0.0000	1.0080
329	opls_808	1	SiO	O10	1	0.0000	15.9990
330	opls_808	1	SiO	O0N	1	0.0000	15.9990
331	opls_800	1	SiO	Si6	1	0.0000	28.0850
332	opls_808	1	SiO	O0P	1	0.0000	15.9990
333	opls_800	1	SiO	Si7	1	0.0000	28.0850
334	opls_826	1	SiO	H0R	1	0.0000	1.0080
335	opls_808	1	SiO	H0S	1	0.0000	1.0080
336	opls_808	1	SiO	O11	1	0.0000	15.9990
337	opls_800	1	SiO	Si0	1	0.0000	28.0850
338	opls_809	1	SiO	O0X	1	-0.3274	15.9990
339	opls_809	1	SiO	O11	1	0.0000	15.9990
340	opls_808	1	SiO	O04	1	0.0000	15.9990
341	opls_800	1	SiO	Si1	1	0.0000	28.0850
342	opls_808	1	SiO	O05	1	0.0000	15.9990
343	opls_808	1	SiO	O06	1	0.0000	15.9990
344	opls_808	1	SiO	O08	1	0.0000	15.9990
345	opls_800	1	SiO	Si2	1	0.0000	28.0850
346	opls_809	1	SiO	O13	1	0.0000	15.9990
347	opls_809	1	SiO	O14	1	0.0000	15.9990
348	opls_808	1	SiO	O0C	1	0.0000	15.9990
349	opls_800	1	SiO	Si3	1	0.0000	28.0850
350	opls_808	1	SiO	O09	1	0.0000	15.9990
351	opls_808	1	SiO	O0F	1	0.0000	15.9990
352	opls_800	1	SiO	Si4	1	0.0000	28.0850
353	opls_808	1	SiO	O0H	1	0.0000	15.9990
354	opls_800	1	SiO	Si5	1	0.0000	28.0850
355	opls_819	1	SiO	H0J	1	0.0000	1.0080
356	opls_820	1	SiO	H0K	1	0.0000	1.0080
357	opls_808	1	SiO	O10	1	0.0000	15.9990
358	opls_808	1	SiO	O0N	1	0.0000	15.9990
359	opls_800	1	SiO	Si6	1	0.0000	28.0850
360	opls_808	1	SiO	O0P	1	0.0000	15.9990
361	opls_800	1	SiO	Si7	1	0.0000	28.0850
362	opls_826	1	SiO	H0R	1	0.0000	1.0080
363	opls_808	1	SiO	H0S	1	0.0000	1.0080
364	opls_808	1	SiO	O11	1	0.0000	15.9990
365	opls_800	1	SiO	Si0	1	0.0000	28.0850
366	opls_809	1	SiO	O0X	1	-0.3274	15.9990
367	opls_809	1	SiO	O11	1	0.0000	15.9990
368	opls_808	1	SiO	O04	1	0.0000	15.9990
369	opls_800	1	SiO	Si1	1	0.0000	28.0850
370	opls_808	1	SiO	O05	1	0.0000	15.9990
371	opls_808	1	SiO	O06	1	0.0000	15.9990
372	opls_808	1	SiO	O08	1	0.0000	15.9990
373	opls_800	1	SiO	Si2	1	0.0000	28.0850
374	opls_809	1	SiO	O13	1	0.0000	15.9990
375	opls_809	1	SiO	O14	1	0.0000	15.9990
376	opls_808	1	SiO	O0C	1	0.0000	15.9990
377	opls_800	1	SiO	Si3	1	0.0000	28.0850
378	opls_808	1	SiO	O09	1	0.0000	15.9990
379	opls_808	1	SiO	O0F	1	0.0000	15.9990
380	opls_800	1	SiO	Si4	1	0.0000	28.0850
381	opls_808	1	SiO	O0H	1	0.0000	15.9990
382	opls_800	1	SiO	Si5	1	0.0000	28.0850
383	opls_819	1	SiO	H0J	1	0.0000	1.0080
384	opls_820	1	SiO	H0K	1	0.0000	1.0080
385	opls_808	1	SiO	O10	1	0.0000	15.9990
386	opls_808	1	SiO	O0N	1	0.0000	15.9990
387	opls_800	1	SiO	Si6	1	0.0000	28.0850
388	opls_808	1	SiO	O0P	1	0.0000	15.9990
389	opls_800	1	SiO	Si7	1	0.0000	28.0850
390	opls_826	1	SiO	H0R	1	0.0000	1.0080
391	opls_808	1	SiO	H0S	1	0.0000	1.0080
392	opls_808	1	SiO	O11	1	0.0000	15.9990
393	opls_800	1	SiO	Si0	1	0.0000	28.0850
394	opls_809	1	SiO	O0X	1	-0.3274	15.9990
395	opls_809	1	SiO	O11	1	0.0000	15.9990
396	opls_808	1	SiO	O04	1	0.0000	15.9990
397	opls_800	1	SiO	Si1	1	0.0000	28.0850
398	opls_808	1	SiO	O05	1	0.0000	15.9990
399	opls_808	1	SiO	O06	1	0.0000	15.9990
400	opls_808	1	SiO	O08	1	0.0000	15.9990
401	opls_800	1	SiO	Si2	1	0.0000	28.0850
402	opls_809	1	SiO	O13	1	0.0000	15.9990
403	opls_809	1	SiO	O14	1	0.0000	15.9990
404	opls_808	1	SiO	O0C	1	0.0000	15.9990
405	opls_800	1	SiO	Si3	1	0.0000	28.0850
406	opls_808	1	SiO	O09	1	0.0000	15.9990
407	opls_808	1	SiO	O0F	1	0.0000	15.9990
408	opls_800	1	SiO	Si4	1	0.0000	28.0850
409	opls_808	1	SiO	O0H	1	0.0000	15.9990
410	opls_800	1	SiO	Si5	1	0.0000	28.0850
411	opls_819	1	SiO	H0J	1	0.0000	1.0080
412	opls_820	1	SiO	H0K	1	0.0000	1.0080
413	opls_808	1	SiO	O10	1	0.0000	15.9990
414	opls_808	1	SiO	O0N	1	0.0000	15.9990
415	opls_800	1	SiO	Si6	1	0.0000	28.0850
416	opls_808	1	SiO	O0P	1	0.0000	15.9990
417	opls_800	1	SiO	Si7	1	0.0000	28.0850
418	opls_826	1	SiO	H0R	1	0.0000	1.0080
419	opls_808	1	SiO	H0S	1	0.0000	1.0080
420	opls_808	1	SiO	O11	1	0.0000	15.9990
421	opls_800	1	SiO	Si0	1	0.0000	28.0850
422	opls_809	1	SiO	O0X	1	-0.3274	15.9990
423	opls_809	1	SiO	O11	1	0.0000	15.9990
424	opls_808	1	SiO	O04	1	0.0000	15.9990
425	opls_800	1	SiO	Si1	1	0.0000	28.0850
426	opls_808	1	SiO	O05	1	0.0000	15.9990
427	opls_808	1	SiO	O06	1	0.0000	15.9990
428	opls_808	1	SiO	O08	1	0.0000	15.9990
429	opls_800	1	SiO	Si2	1	0.0000	28.0850
430	opls_809	1	SiO	O13	1	0.0000	15.9990
431	opls_809	1	SiO	O14	1	0.0000	15.9990
432	opls_808	1	SiO	O0C	1	0.0000	15.9990
433	opls_800	1	SiO	Si3	1	0.0000	28.0850
434	opls_808	1	SiO	O09	1	0.0000	15.9990
435	opls_808	1	SiO	O0F	1	0.0000	15.9990
436	opls_800	1	SiO	Si4	1	0.0000	28.0850
437	opls_808	1	SiO	O0H	1	0.0000	15.9990
438	opls_800	1	SiO	Si5	1	0.0000	28.0850
439	opls_819	1	SiO	H0J	1	0.0000	1.0080
440	opls_820	1	SiO	H0K	1	0.0000	1.0080
441	opls_808	1	SiO	O10	1	0.0000	15.9990
442	opls_808	1	SiO	O0N	1	0.0000	15.9990
443	opls_800	1	SiO	Si6	1	0.0000	28.0850
444	opls_808	1	SiO	O0P	1	0.0000	15.9990
445	opls_800	1	SiO	Si7	1	0.0000	28.0850
446	opls_826	1	SiO	H0R	1	0.0000	1.0080
447	opls_808	1	SiO	H0S	1	0.0000	1.0080
448	opls_808	1	SiO	O11	1	0.0000	15.9990
449	opls_800	1	SiO	Si0	1	0.0000	28.0850
450	opls_809	1	SiO	O0X	1	-0.3274	15.9990
451	opls_809	1	SiO	O11	1	0.0000	15.9990
452	opls_808	1	SiO	O04	1	0.0000	15.9990
453	opls_800	1	SiO	Si1	1	0.0000	28.0850
454	opls_808	1	SiO	O05	1	0.0000	15.9990
455	opls_808	1	SiO	O06	1	0.0000	15.9990
456	opls_808	1	SiO	O08	1	0.0000	15.9990
457	opls_800	1	SiO	Si2	1	0.0000	28.0850
458	opls_809	1	SiO	O13	1	0.0000	15.9990
459	opls_809	1	SiO	O14	1	0.0000	15.9990
460	opls_808	1	SiO	O0C	1	0.0000	15.9990
461	opls_800	1	SiO	Si3	1	0.0000	28.0850
462	opls_808	1	SiO	O09	1	0.0000	15.9990
463	opls_808	1	SiO	O0F	1	0.0000	15.9990
464	opls_800	1	SiO	Si4	1	0.0000	28.0850
465	opls_808	1	SiO	O0H	1	0.0000	15.9990
466	opls_800	1	SiO	Si5	1	0.0000	28.0850
467	opls_819	1	SiO	H0J	1	0.0000	1.0080
468	opls_820	1	SiO	H0K	1	0.0000	1.0080
469	opls_808	1	SiO	O10	1	0.0000	15.9990
470	opls_808	1	SiO	O0N	1	0.0000	15.9990
471	opls_800	1	SiO	Si6	1	0.0000	28.0850
472	opls_808	1	SiO	O0P	1	0.0000	15.9990
473	opls_800	1	SiO	Si7	1	0.0000	28.0850
474	opls_826	1	SiO	H0R	1	0.0000	1.0080
475	opls_808	1	SiO	H0S	1	0.0000	1.0080
476	opls_808	1	SiO	O11	1	0.0000	15.9990
477	opls_800	1	SiO	Si0	1	0.0000	28.0850
478	opls_809	1	SiO	O0X	1	-0.3274	15.9990
479	opls_809	1	SiO	O11	1	0.0000	15.9990
480	opls_808	1	SiO	O04	1	0.0000	15.9990
481	opls_800	1	SiO	Si1	1	0.0000	28.0850
482	opls_808	1	SiO	O05	1	0.0000	15.9990
483	opls_808	1	SiO	O06	1	0.0000	15.9990
484	opls_808	1	SiO	O08	1	0.0000	15.9990
485	opls_800	1	SiO	Si2	1	0.0000	28.0850
486	opls_809	1	SiO	O13	1	0.0000	15.9990
487	opls_809	1	SiO	O14	1	0.0000	15.9990
488	opls_808	1	SiO	O0C	1	0.0000	15.9990
489	opls_800	1	SiO	Si3	1	0.0000	28.0850
490	opls_808	1	SiO	O09	1	0.0000	15.9990
491	opls_808	1	SiO	O0F	1	0.0000	15.9990
492	opls_800	1	SiO	Si4	1	0.0000	28.0850
493	opls_808	1	SiO	O0H	1	0.0000	15.9990
494	opls_800	1	SiO	Si5	1	0.0000	28.0850
495	opls_819	1	SiO	H0J	1	0.0000	1.0080
496	opls_820	1	SiO	H0K	1	0.0000	1.0080
497	opls_808	1	SiO	O10	1	0.0000	15.9990
498	opls_808	1	SiO	O0N	1	0.0000	15.9990
499	opls_800	1	SiO	Si6	1	0.0000	28.0850
500	opls_808	1	SiO	O0P	1	0.0000	15.9990
501	opls_800	1	SiO	Si7	1	0.0000	28.0850
502	opls_826	1	SiO	H0R	1	0.0000	1.0080
503	opls_808	1	SiO	H0S	1	0.0000	1.0080
504	opls_808	1	SiO	O11	1	0.0000	15.9990
505	opls_800	1	SiO	Si0	1	0.0000	28.0850
506	opls_809	1	SiO	O0X	1	-0.3274	15.9990
507	opls_809	1	SiO	O11	1	0.0000	15.9990
508	opls_808	1	SiO	O04	1	0.0000	15.9990
509	opls_800	1	SiO	Si1	1	0.0000	28.0850
510	opls_808	1	SiO	O05	1	0.0000	15.9990
511	opls_808	1	SiO	O06	1	0.0000	15.9990
512	opls_808	1	SiO	O08	1	0.0000	15.9990
513	opls_800	1	SiO	Si2	1	0.0000	28.0850
514	opls_809	1	SiO	O13	1	0.0000	15.9990
515	opls_809	1	SiO	O14	1	0.0000	15.9990
516	opls_808	1	SiO	O0C	1	0.0000	15.9990
517	opls_800	1	SiO	Si3	1	0.0000	28.0850
518	opls_808	1	SiO	O09	1	0.0000	15.9990
519	opls_808	1	SiO	O0F	1	0.0000	15.9990
520	opls_800	1	SiO	Si4	1	0.0000	28.0850
521	opls_808	1	SiO	O0H	1	0.0000	15.9990
522	opls_800	1	SiO	Si5	1	0.0000	28.0850
523	opls_819	1	SiO	H0J	1	0.0000	1.0080
524	opls_820	1	SiO	H0K	1	0.0000	1.0080
525	opls_808	1	SiO	O10	1	0.0000	15.9990
526	opls_808	1	SiO	O0N	1	0.0000	15.9990
527	opls_800	1	SiO	Si6	1	0.0000	28.0850
528	opls_808	1	SiO	O0P	1	0.0000	15.9990
529	opls_800	1	SiO	Si7	1	0.0000	28.0850
530	opls_826	1	SiO	H0R	1	0.0000	1.0080
531	opls_808	1	SiO	H0S	1	0.0000	1.0080
532	opls_808	1	SiO	O11	1	0.0000	15.9990
533	opls_800	1	SiO	Si0	1	0.0000	28.0850
534	opls_809	1	SiO	O0X	1	-0.3274	15.9990
535	opls_809	1	SiO	O11	1	0.0000	15.9990
536	opls_808	1	SiO	O04	1	0.0000	15.9990
537	opls_800	1	SiO	Si1	1	0.0000	28.0850
538	opls_808	1	SiO	O05	1	0.0000	15.9990
539	opls_808	1	SiO	O06	1	0.0000	15.9990
540	opls_808	1	SiO	O08	1	0.0000	15.9990
541	opls_800	1	SiO	Si2	1	0.0000	28.0850
542	opls_809	1	SiO	O13	1	0.0000	15.9990
543	opls_809	1	SiO	O14	1	0.0000	15.9990
544	opls_808	1	SiO	O0C	1	0.0000	15.9990
545	opls_800	1	SiO	Si3	1	0.0000	28.0850
546	opls_808	1	SiO	O09	1	0.0000	15.9990
547	opls_808	1	SiO	O0F	1	0.0000	15.9990
548	opls_800	1	SiO	Si4	1	0.0000	28.0850
549	opls_808	1	SiO	O0H	1	0.0000	15.9990
550	opls_800	1	SiO	Si5	1	0.0000	28.0850
551	opls_819	1	SiO	H0J	1	0.0000	1.0080
552	opls_820	1	SiO	H0K	1	0.0000	1.0080
553	opls_808	1	SiO	O10	1	0.0000	15.9990
554	opls_808	1	SiO	O0N	1	0.0000	15.9990
555	opls_800	1	SiO	Si6	1	0.0000	28.0850
556	opls_808	1	SiO	O0P	1	0.0000	15.9990
557	opls_800	1	SiO	Si7	1	0.0000	28.0850
558	opls_826	1	SiO	H0R	1	0.0000	1.0080
559	opls_808	1	SiO	H0S	1	0.0000	1.0080
560	opls_808	1	SiO	O11	1	0.0000	15.9990
561	opls_800	1	SiO	Si0	1	0.0000	28.0850
562	opls_809	1	SiO	O0X	1	-0.3274	15.9990
563	opls_809	1	SiO	O11	1	0.0000	15.9990
564	opls_808	1	SiO	O04	1	0.0000	15.9990
565	opls_800	1	SiO	Si1	1	0.0000	28.0850
566	opls_808	1	SiO	O05	1	0.0000	15.9990
567	opls_808	1	SiO	O06	1	0.0000	15.9990
568	opls_808	1	SiO	O08	1	0.0000	15.9990
569	opls_800	1	SiO	Si2	1	0.0000	28.0850
570	opls_809	1	SiO	O13	1	0.0000	15.9990
571	opls_809	1	SiO	O14	1	0.0000	15.9990
572	opls_808	1	SiO	O0C	1	0.0000	15.9990
573	opls_800	1	SiO	Si3	1	0.0000	28.0850
574	opls_808	1	SiO	O09	1	0.0000	15.9990
575	opls_808	1	SiO	O0F	1	0.0000	15.9990
576	opls_800	1	SiO	Si4	1	0.0000	28.0850
577	opls_808	1	SiO	O0H	1	0.0000	15.9990
578	opls_800	1	SiO	Si5	1	0.0000	28.0850
579	opls_819	1	SiO	H0J	1	0.0000	1.0080
580	opls_820	1	SiO	H0K	1	0.0000	1.0080
581	opls_808	1	SiO	O10	1	0.0000	15.9990
582	opls_808	1	SiO	O0N	1	0.0000	15.9990
583	opls_800	1	SiO	Si6	1	0.0000	28.0850
584	opls_808	1	SiO	O0P	1	0.0000	15.9990
585	opls_800	1	SiO	Si7	1	0.0000	28.0850
586	opls_826	1	SiO	H0R	1	0.0000	1.0080
587	opls_808	1	SiO	H0S	1	0.0000	1.0080
588	opls_808	1	SiO	O11	1	0.0000	15.9990
589	opls_800	1	SiO	Si0	1	0.0000	28.0850
590	opls_809	1	SiO	O0X	1	-0.3274	15.9990
591	opls_809	1	SiO	O11	1	0.0000	15.9990
592	opls_808	1	SiO	O04	1	0.0000	15.9990
593	opls_800	1	SiO	Si1	1	0.0000	28.0850
594	opls_808	1	SiO	O05	1	0.0000	15.9990
595	opls_808	1	SiO	O06	1	0.0000	15.9990
596	opls_808	1	SiO	O08	1	0.0000	15.9990
597	opls_800	1	SiO	Si2	1	0.0000	28.0850
598	opls_809	1	SiO	O13	1	0.0000	15.9990
599	opls_809	1	SiO	O14	1	0.0000	15.9990
600	opls_808	1	SiO	O0C	1	0.0000	15.9990
601	opls_800	1	SiO	Si3	1	0.0000	28.0850
602	opls_808	1	SiO	O09	1	0.0000	15.9990
603	opls_808	1	SiO	O0F	1	0.0000	15.9990
604	opls_800	1	SiO	Si4	1	0.0000	28.0850
605	opls_808	1	SiO	O0H	1	0.0000	15.9990
606	opls_800	1	SiO	Si5	1	0.0000	28.0850
607	opls_819	1	SiO	H0J	1	0.0000	1.0080
608	opls_820	1	SiO	H0K	1	0.0000	1.0080
609	opls_808	1	SiO	O10	1	0.0000	15.9990
610	opls_808	1	SiO	O0N	1	0.0000	15.9990
611	opls_800	1	SiO	Si6	1	0.0000	28.0850
612	opls_808	1	SiO	O0P	1	0.0000	15.9990
613	opls_800	1	SiO	Si7	1	0.0000	28.0850
614	opls_826	1	SiO	H0R	1	0.0000	1.0080
615	opls_808	1	SiO	H0S	1	0.0000	1.0080
616	opls_808	1	SiO	O11	1	0.0000	15.9990
617	opls_800	1	SiO	Si0	1	0.0000	28.0850
618	opls_809	1	SiO	O0X	1	-0.3274	15.9990
619	opls_809	1	SiO	O11	1	0.0000	15.9990
620	opls_808	1	SiO	O04	1	0.0000	15.9990
621	opls_800	1	SiO	Si1	1	0.0000	28.0850
622	opls_808	1	SiO	O05	1	0.0000	15.9990
623	opls_808	1	SiO	O06	1	0.0000	15.9990
624	opls_808	1	SiO	O08	1	0.0000	15.9990
625	opls_800	1	SiO	Si2	1	0.0000	28.0850
626	opls_809	1	SiO	O13	1	0.0000	15.9990
627	opls_809	1	SiO	O14	1	0.0000	15.9990
628	opls_808	1	SiO	O0C	1	0.0000	15.9990
629	opls_800	1	SiO	Si3	1	0.0000	28.0850
630	opls_808	1	SiO	O09	1	0.0000	15.9990
631	opls_808	1	SiO	O0F	1	0.0000	15.9990
632	opls_800	1	SiO	Si4	1	0.0000	28.0850
633	opls_808	1	SiO	O0H	1	0.0000	15.9990
634	opls_800	1	SiO	Si5	1	0.0000	28.0850
635	opls_819	1	SiO	H0J	1	0.0000	1.0080
636	opls_820	1	SiO	H0K	1	0.0000	1.0080
637	opls_808	1	SiO	O10	1	0.0000	15.9990
638	opls_808	1	SiO	O0N	1	0.0000	15.9990
639	opls_800	1	SiO	Si6	1	0.0000	28.0850
640	opls_808	1	SiO	O0P	1	0.0000	15.9990
641	opls_800	1	SiO	Si7	1	0.0000	28.0850
642	opls_826	1	SiO	H0R	1	0.0000	1.0080
643	opls_808	1	SiO	H0S	1	0.0000	1.0080
644	opls_808	1	SiO	O11	1	0.0000	15.9990
645	opls_800	1	SiO	Si0	1	0.0000	28.0850
646	opls_809	1	SiO	O0X	1	-0.3274	15.9990
647	opls_809	1	SiO	O11	1	0.0000	15.9990
648	opls_808	1	SiO	O04	1	0.0000	15.9990
649	opls_800	1	SiO	Si1	1	0.0000	28.0850
650	opls_808	1	SiO	O05	1	0.0000	15.9990
651	opls_808	1	SiO	O06	1	0.0000	15.9990
652	opls_808	1	SiO	O08	1	0.0000	15.9990
653	opls_800	1	SiO	Si2	1	0.0000	28.0850
654	opls_809	1	SiO	O13	1	0.0000	15.9990
655	opls_809	1	SiO	O14	1	0.0000	15.9990
656	opls_808	1	SiO	O0C	1	0.0000	15.9990
657	opls_800	1	SiO	Si3	1	0.0000	28.0850
658	opls_808	1	SiO	O09	1	0.0000	15.9990
659	opls_808	1	SiO	O0F	1	0.0000	15.9990
660	opls_800	1	SiO	Si4	1	0.0000	28.0850
661	opls_808	1	SiO	O0H	1	0.0000	15.9990
662	opls_800	1	SiO	Si5	1	0.0000	28.0850
663	opls_819	1	SiO	H0J	1	0.0000	1.0080
664	opls_820	1	SiO	H0K	1	0.0000	1.0080
665	opls_808	1	SiO	O10	1	0.0000	15.9990
666	opls_808	1	SiO	O0N	1	0.0000	15.9990
667	opls_800	1	SiO	Si6	1	0.0000	28.0850
668	opls_808	1	SiO	O0P	1	0.0000	15.9990
669	opls_800	1	SiO	Si7	1	0.0000	28.0850
670	opls_826	1	SiO	H0R	1	0.0000	1.0080
671	opls_808	1	SiO	H0S	1	0.0000	1.0080
672	opls_808	1	SiO	O11	1	0.0000	15.9990
673	opls_800	1	SiO	Si0	1	0.0000	28.0850
674	opls_809	1	SiO	O0X	1	-0.3274	15.9990
675	opls_809	1	SiO	O11	1	0.0000	15.9990
676	opls_808	1	SiO	O04	1	0.0000	15.9990
677	opls_800	1	SiO	Si1	1	0.0000	28.0850
678	opls_808	1	SiO	O05	1	0.0000	15.9990
679	opls_808	1	SiO	O06	1	0.0000	15.9990
680	opls_808	1	SiO	O08	1	0.0000	15.9990
681	opls_800	1	SiO	Si2	1	0.0000	28.0850
682	opls_809	1	SiO	O13	1	0.0000	15.9990
683	opls_809	1	SiO	O14	1	0.0000	15.9990
684	opls_808	1	SiO	O0C	1	0.0000	15.9990
685	opls_800	1	SiO	Si3	1	0.0000	28.0850
686	opls_808	1	SiO	O09	1	0.0000	15.9990
687	opls_808	1	SiO	O0F	1	0.0000	15.9990
688	opls_800	1	SiO	Si4	1	0.0000	28.0850
689	opls_808	1	SiO	O0H	1	0.0000	15.9990
690	opls_800	1	SiO	Si5	1	0.0000	28.0850
691	opls_819	1	SiO	H0J	1	0.0000	1.0080
692	opls_820	1	SiO	H0K	1	0.0000	1.0080
693	opls_808	1	SiO	O10	1	0.0000	15.9990
694	opls_808	1	SiO	O0N	1	0.0000	15.9990
695	opls_800	1	SiO	Si6	1	0.0000	28.0850
696	opls_808	1	SiO	O0P	1	0.0000	15.9990
697	opls_800	1	SiO	Si7	1	0.0000	28.0850
698	opls_826	1	SiO	H0R	1	0.0000	1.0080
699	opls_808	1	SiO	H0S	1	0.0000	1.0080
700	opls_808	1	SiO	O11	1	0.0000	15.9990
701	opls_800	1	SiO	Si0	1	0.0000	28.0850
702	opls_809	1	SiO	O0X	1	-0.3274	15.9990
703	opls_809	1	SiO	O11	1	0.0000	15.9990
704	opls_808	1	SiO	O04	1	0.0000	15.9990
705	opls_800	1	SiO	Si1	1	0.0000	28.0850
706	opls_808	1	SiO	O05	1	0.0000	15.9990
707	opls_808	1	SiO	O06	1	0.0000	15.9990
708	opls_808	1	SiO	O08	1	0.0000	15.9990
709	opls_800	1	SiO	Si2	1	0.0000	28.0850
710	opls_809	1	SiO	O13	1	0.0000	15.9990
711	opls_809	1	SiO	O14	1	0.0000	15.9990
712	opls_808	1	SiO	O0C	1	0.0000	15.9990
713	opls_800	1	SiO	Si3	1	0.0000	28.0850
714	opls_808	1	SiO	O09	1	0.0000	15.9990
715	opls_808	1	SiO	O0F	1	0.0000	15.9990
716	opls_800	1	SiO	Si4	1	0.0000	28.0850
717	opls_808	1	SiO	O0H	1	0.0000	15.9990
718	opls_800	1	SiO	Si5	1	0.0000	28.0850
719	opls_819	1	SiO	H0J	1	0.0000	1.0080
720	opls_820	1	SiO	H0K	1	0.0000	1.0080
721	opls_808	1	SiO	O10	1	0.0000	15.9990
722	opls_808	1	SiO	O0N	1	0.0000	15.9990
723	opls_800	1	SiO	Si6	1	0.0000	28.0850
724	opls_808	1	SiO	O0P	1	0.0000	15.9990
725	opls_800	1	SiO	Si7	1	0.0000	28.0850
726	opls_826	1	SiO	H0R	1	0.0000	1.0080
727	opls_808	1	SiO	H0S	1	0.0000	1.0080
728	opls_808	1	SiO	O11	1	0.0000	15.9990
729	opls_800	1	SiO	Si0	1	0.0000	28.0850
730	opls_809	1	SiO	O0X	1	-0.3274	15.9990
731	opls_809	1	SiO	O11	1	0.0000	15.9990
732	opls_808	1	SiO	O04	1	0.0000	15.9990
733	opls_800	1	SiO	Si1	1	0.0000	28.0850
734	opls_808	1	SiO	O05	1	0.0000	15.9990
735	opls_808	1	SiO	O06	1	0.0000	15.9990
736	opls_808	1	SiO	O08	1	0.0000	15.9990
737	opls_800	1	SiO	Si2	1	0.0000	28.0850
738	opls_809	1	SiO	O13	1	0.0000	15.9990
739	opls_809	1	SiO	O14	1	0.0000	15.9990
740	opls_808	1	SiO	O0C	1	0.0000	15.9990
741	opls_800	1	SiO	Si3	1	0.0000	28.0850
742	opls_808	1	SiO	O09	1	0.0000	15.9990
743	opls_808	1	SiO	O0F	1	0.0000	15.9990
744	opls_800	1	SiO	Si4	1	0.0000	28.0850
745	opls_808	1	SiO	O0H	1	0.0000	15.9990
746	opls_800	1	SiO	Si5	1	0.0000	28.0850
747	opls_819	1	SiO	H0J	1	0.0000	1.0080
748	opls_820	1	SiO	H0K	1	0.0000	1.0080
749	opls_808	1	SiO	O10	1	0.0000	15.9990
750	opls_808	1	SiO	O0N	1	0.0000	15.9990
751	opls_800	1	SiO	Si6	1	0.0000	28.0850
752	opls_808	1	SiO	O0P	1	0.0000	15.9990
753	opls_800	1	SiO	Si7	1	0.0000	28.0850
754	opls_826	1	SiO	H0R	1	0.0000	1.0080
755	opls_808	1	SiO	H0S	1	0.0000	1.0080
756	opls_808	1	SiO	O11	1	0.0000	15.9990
757	opls_800	1	SiO	Si0	1	0.0000	28.0850
758	opls_809	1	SiO	O0X	1	-0.3274	15.9990
759	opls_809	1	SiO	O11	1	0.0000	15.9990
760	opls_808	1	SiO	O04	1	0.0000	15.9990
761	opls_800	1	SiO	Si1	1	0.0000	28.0850
762	opls_808	1	SiO	O05	1	0.0000	15.9990
763	opls_808	1	SiO	O06	1	0.0000	15.9990
764	opls_808	1	SiO	O08	1	0.0000	15.9990
765	opls_800	1	SiO	Si2	1	0.0000	28.0850
766	opls_809	1	SiO	O13	1	0.0000	15.9990
767	opls_809	1	SiO	O14	1	0.0000	15.9990
768	opls_808	1	SiO	O0C	1	0.0000	15.9990
769	opls_800	1	SiO	Si3	1	0.0000	28.0850
770	opls_808	1	SiO	O09	1	0.0000	15.9990
771	opls_808	1	SiO	O0F	1	0.0000	15.9990
772	opls_800	1	SiO	Si4	1	0.0000	28.0850
773	opls_808	1	SiO	O0H	1	0.0000	15.9990
774	opls_800	1	SiO	Si5	1	0.0000	28.0850
775	opls_819	1	SiO	H0J	1	0.0000	1.0080
776	opls_820	1	SiO	H0K	1	0.0000	1.0080
777	opls_808	1	SiO	O10	1	0.0000	15.9990
778	opls_808	1	SiO	O0N	1	0.0000	15.9990
779	opls_800	1	SiO	Si6	1	0.0000	28.0850
780	opls_808	1	SiO	O0P	1	0.0000	15.9990
781	opls_800	1	SiO	Si7	1	0.0000	28.0850
782	opls_826	1	SiO	H0R	1	0.0000	1.0080
783	opls_808	1	SiO	H0S	1	0.0000	1.0080
784	opls_808	1	SiO	O11	1	0.0000	15.9990
785	opls_800	1	SiO	Si0	1	0.0000	28.0850
786	opls_809	1	SiO	O0X	1	-0.3274	15.9990
787	opls_809	1	SiO	O11	1	0.0000	15.9990
788	opls_808	1	SiO	O04	1	0.0000	15.9990
789	opls_800	1	SiO	Si1	1	0.0000	28.0850
790	opls_808	1	SiO	O05	1	0.0000	15.9990
791	opls_808	1	SiO	O06	1	0.0000	15.9990
792	opls_808	1	SiO	O08	1	0.0000	15.9990
793	opls_800	1	SiO	Si2	1	0.0000	28.0850
794	opls_809	1	SiO	O13	1	0.0000	15.9990
795	opls_809	1	SiO	O14	1	0.0000	15.9990
796	opls_808	1	SiO	O0C	1	0.0000	15.9990
797	opls_800	1	SiO	Si3	1	0.0000	28.0850
798	opls_808	1	SiO	O09	1	0.0000	15.9990
799	opls_808	1	SiO	O0F	1	0.0000	15.9990
800	opls_800	1	SiO	Si4	1	0.0000	28.0850
801	opls_808	1	SiO	O0H	1	0.0000	15.9990
802	opls_800	1	SiO	Si5	1	0.0000	28.0850
803	opls_819	1	SiO	H0J	1	0.0000	1.0080
804	opls_820	1	SiO	H0K	1	0.0000	1.0080
805	opls_808	1	SiO	O10	1	0.0000	15.9990
806	opls_808	1	SiO	O0N	1	0.0000	15.9990
807	opls_800	1	SiO	Si6	1	0.0000	28.0850
808	opls_808	1	SiO	O0P	1	0.0000	15.9990
809	opls_800	1	SiO	Si7	1	0.0000	28.0850
810	opls_826	1	SiO	H0R	1	0.0000	1.0080
811	opls_808	1	SiO	H0S	1	0.0000	1.0080
812	opls_808	1	SiO	O11	1	0.0000	15.9990
813	opls_800	1	SiO	Si0	1	0.0000	28.0850
814	opls_809	1	SiO	O0X	1	-0.3274	15.9990
815	opls_809	1	SiO	O11	1	0.0000	15.9990
816	opls_808	1	SiO	O04	1	0.0000	15.9990
817	opls_800	1	SiO	Si1	1	0.0000	28.0850
818	opls_808	1	SiO	O05	1	0.0000	15.9990
819	opls_808	1	SiO	O06	1	0.0000	15.9990
820	opls_808	1	SiO	O08	1	0.0000	15.9990
821	opls_800	1	SiO	Si2	1	0.0000	28.0850
822	opls_809	1	SiO	O13	1	0.0000	15.9990
823	opls_809	1	SiO	O14	1	0.0000	15.9990
824	opls_808	1	SiO	O0C	1	0.0000	15.9990
825	opls_800	1	SiO	Si3	1	0.0000	28.0850
826	opls_808	1	SiO	O09	1	0.0000	15.9990
827	opls_808	1	SiO	O0F	1	0.0000	15.9990
828	opls_800	1	SiO	Si4	1	0.0000	28.0850
829	opls_808	1	SiO	O0H	1	0.0000	15.9990
830	opls_800	1	SiO	Si5	1	0.0000	28.0850
831	opls_819	1	SiO	H0J	1	0.0000	1.0080
832	opls_820	1	SiO	H0K	1	0.0000	1.0080
833	opls_808	1	SiO	O10	1	0.0000	15.9990
834	opls_808	1	SiO	O0N	1	0.0000	15.9990
835	opls_800	1	SiO	Si6	1	0.0000	28.0850
836	opls_808	1	SiO	O0P	1	0.0000	15.9990
837	opls_800	1	SiO	Si7	1	0.0000	28.0850
838	opls_826	1	SiO	H0R	1	0.0000	1.0080
839	opls_808	1	SiO	H0S	1	0.0000	1.0080
840	opls_808	1	SiO	O11	1	0.0000	15.9990
841	opls_800	1	SiO	Si0	1	0.0000	28.0850
842	opls_809	1	SiO	O0X	1	-0.3274	15.9990
843	opls_809	1	SiO	O11	1	0.0000	15.9990
844	opls_808	1	SiO	O04	1	0.0000	15.9990
845	opls_800	1	SiO	Si1	1	0.0000	28.0850
846	opls_808	1	SiO	O05	1	0.0000	15.9990
847	opls_808	1	SiO	O06	1	0.0000	15.9990
848	opls_808	1	SiO	O08	1	0.0000	15.9990
849	opls_800	1	SiO	Si2	1	0.0000	28.0850
850	opls_809	1	SiO	O13	1	0.0000	15.9990
851	opls_809	1	SiO	O14	1	0.0000	15.9990
852	opls_808	1	SiO	O0C	1	0.0000	15.9990
853	opls_800	1	SiO	Si3	1	0.0000	28.0850
854	opls_808	1	SiO	O09	1	0.0000	15.9990
855	opls_808	1	SiO	O0F	1	0.0000	15.9990
856	opls_800	1	SiO	Si4	1	0.0000	28.0850
857	opls_808	1	SiO	O0H	1	0.0000	15.9990
858	opls_800	1	SiO	Si5	1	0.0000	28.0850
859	opls_819	1	SiO	H0J	1	0.0000	1.0080
860	opls_820	1	SiO	H0K	1	0.0000	1.0080
861	opls_808	1	SiO	O10	1	0.0000	15.9990
862	opls_808	1	SiO	O0N	1	0.0000	15.9990
863	opls_800	1	SiO	Si6	1	0.0000	28.0850
864	opls_808	1	SiO	O0P	1	0.0000	15.9990
865	opls_800	1	SiO	Si7	1	0.0000	28.0850
866	opls_826	1	SiO	H0R	1	0.0000	1.0080
867	opls_808	1	SiO	H0S	1	0.0000	1.0080
868	opls_808	1	SiO	O11	1	0.0000	15.9990
869	opls_800	1	SiO	Si0	1	0.0000	28.0850
870	opls_809	1	SiO	O0X	1	-0.3274	15.9990
871	opls_809	1	SiO	O11	1	0.0000	15.9990
872	opls_808	1	SiO	O04	1	0.0000	15.9990
873	opls_800	1	SiO	Si1	1	0.0000	28.0850
874	opls_808	1	SiO	O05	1	0.0000	15.9990
875	opls_808	1	SiO	O06	1	0.0000	15.9990
876	opls_808	1	SiO	O08	1	0.0000	15.9990
877	opls_800	1	SiO	Si2	1	0.0000	28.0850
878	opls_809	1	SiO	O13	1	0.0000	15.9990
879	opls_809	1	SiO	O14	1	0.0000	15.9990
880	opls_808	1	SiO	O0C	1	0.0000	15.9990
881	opls_800	1	SiO	Si3	1	0.0000	28.0850
882	opls_808	1	SiO	O09	1	0.0000	15.9990
883	opls_808	1	SiO	O0F	1	0.0000	15.9990
884	opls_800	1	SiO	Si4	1	0.0000	28.0850
885	opls_808	1	SiO	O0H	1	0.0000	15.9990
886	opls_800	1	SiO	Si5	1	0.0000	28.0850
887	opls_819	1	SiO	H0J	1	0.0000	1.0080
888	opls_820	1	SiO	H0K	1	0.0000	1.0080
889	opls_808	1	SiO	O10	1	0.0000	15.9990
890	opls_808	1	SiO	O0N	1	0.0000	15.9990
891	opls_800	1	SiO	Si6	1	0.0000	28.0850
892	opls_808	1	SiO	O0P	1	0.0000	15.9990
893	opls_800	1	SiO	Si7	1	0.0000	28.0850
894	opls_826	1	SiO	H0R	1	0.0000	1.0080
895	opls_808	1	SiO	H0S	1	0.0000	1.0080
896	opls_808	1	SiO	O11	1	0.0000	15.9990
897	opls_800	1	SiO	Si0	1	0.0000	28.0850
898	opls_809	1	SiO	O0X	1	-0.3274	15.9990
899	opls_809	1	SiO	O11	1	0.0000	15.9990
900	opls_808	1	SiO	O04	1	0.0000	15.9990
901	opls_800	1	SiO	Si1	1	0.0000	28.0850
902	opls_808	1	SiO	O05	1	0.0000	15.9990
903	opls_808	1	SiO	O06	1	0.0000	15.9990
904	opls_808	1	SiO	O08	1	0.0000	15.9990
905	opls_800	1	SiO	Si2	1	0.0000	28.0850
906	opls_809	1	SiO	O13	1	0.0000	15.9990
907	opls_809	1	SiO	O14	1	0.0000	15.9990
908	opls_808	1	SiO	O0C	1	0.0000	15.9990
909	opls_800	1	SiO	Si3	1	0.0000	28.0850
910	opls_808	1	SiO	O09	1	0.0000	15.9990
911	opls_808	1	SiO	O0F	1	0.0000	15.9990
912	opls_800	1	SiO	Si4	1	0.0000	28.0850
913	opls_808	1	SiO	O0H	1	0.0000	15.9990
914	opls_800	1	SiO	Si5	1	0.0000	28.0850
915	opls_819	1	SiO	H0J	1	0.0000	1.0080
916	opls_820	1	SiO	H0K	1	0.0000	1.0080
917	opls_808	1	SiO	O10	1	0.0000	15.9990
918	opls_808	1	SiO	O0N	1	0.0000	15.9990
919	opls_800	1	SiO	Si6	1	0.0000	28.0850
920	opls_808	1	SiO	O0P	1	0.0000	15.9990
921	opls_800	1	SiO	Si7	1	0.0000	28.0850
922	opls_826	1	SiO	H0R	1	0.0000	1.0080
923	opls_808	1	SiO	H0S	1	0.0000	1.0080
924	opls_808	1	SiO	O11	1	0.0000	15.9990
925	opls_800	1	SiO	Si0	1	0.0000	28.0850
926	opls_809	1	SiO	O0X	1	-0.3274	15.9990
927	opls_809	1	SiO	O11	1	0.0000	15.9990
928	opls_808	1	SiO	O04	1	0.0000	15.9990
929	opls_800	1	SiO	Si1	1	0.0000	28.0850
930	opls_808	1	SiO	O05	1	0.0000	15.9990
931	opls_808	1	SiO	O06	1	0.0000	15.9990
932	opls_808	1	SiO	O08	1	0.0000	15.9990
933	opls_800	1	SiO	Si2	1	0.0000	28.0850
934	opls_809	1	SiO	O13	1	0.0000	15.9990
935	opls_809	1	SiO	O14	1	0.0000	15.9990
936	opls_808	1	SiO	O0C	1	0.0000	15.9990
937	opls_800	1	SiO	Si3	1	0.0000	28.0850
938	opls_808	1	SiO	O09	1	0.0000	15.9990
939	opls_808	1	SiO	O0F	1	0.0000	15.9990
940	opls_800	1	SiO	Si4	1	0.0000	28.0850
941	opls_808	1	SiO	O0H	1	0.0000	15.9990
942	opls_800	1	SiO	Si5	1	0.0000	28.0850
943	opls_819	1	SiO	H0J	1	0.0000	1.0080
944	opls_820	1	SiO	H0K	1	0.0000	1.0080
945	opls_808	1	SiO	O10	1	0.0000	15.9990
946	opls_808	1	SiO	O0N	1	0.0000	15.9990
947	opls_800	1	SiO	Si6	1	0.0000	28.0850
948	opls_808	1	SiO	O0P	1	0.0000	15.9990
949	opls_800	1	SiO	Si7	1	0.0000	28.0850
950	opls_826	1	SiO	H0R	1	0.0000	1.0080
951	opls_808	1	SiO	H0S	1	0.0000	1.0080
952	opls_808	1	SiO	O11	1	0.0000	15.9990
953	opls_800	1	SiO	Si0	1	0.0000	28.0850
954	opls_809	1	SiO	O0X	1	-0.3274	15.9990
955	opls_809	1	SiO	O11	1	0.0000	15.9990
956	opls_808	1	SiO	O04	1	0.0000	15.9990
957	opls_800	1	SiO	Si1	1	0.0000	28.0850
958	opls_808	1	SiO	O05	1	0.0000	15.9990
959	opls_808	1	SiO	O06	1	0.0000	15.9990
960	opls_808	1	SiO	O08	1	0.0000	15.9990
961	opls_800	1	SiO	Si2	1	0.0000	28.0850
962	opls_809	1	SiO	O13	1	0.0000	15.9990
963	opls_809	1	SiO	O14	1	0.0000	15.9990
964	opls_808	1	SiO	O0C	1	0.0000	15.9990
965	opls_800	1	SiO	Si3	1	0.0000	28.0850
966	opls_808	1	SiO	O09	1	0.0000	15.9990
967	opls_808	1	SiO	O0F	1	0.0000	15.9990
968	opls_800	1	SiO	Si4	1	0.0000	28.0850
969	opls_808	1	SiO	O0H	1	0.0000	15.9990
970	opls_800	1	SiO	Si5	1	0.0000	28.0850
971	opls_819	1	SiO	H0J	1	0.0000	1.0080
972	opls_820	1	SiO	H0K	1	0.0000	1.0080
973	opls_808	1	SiO	O10	1	0.0000	15.9990
974	opls_808	1	SiO	O0N	1	0.0000	15.9990
975	opls_800	1	SiO	Si6	1	0.0000	28.0850
976	opls_808	1	SiO	O0P	1	0.0000	15.9990
977	opls_800	1	SiO	Si7	1	0.0000	28.0850
978	opls_826	1	SiO	H0R	1	0.0000	1.0080
979	opls_808	1	SiO	H0S	1	0.0000	1.0080
980	opls_808	1	SiO	O11	1	0.0000	15.9990
981	opls_800	1	SiO	Si0	1	0.0000	28.0850
982	opls_809	1	SiO	O0X	1	-0.3274	15.9990
983	opls_809	1	SiO	O11	1	0.0000	15.9990
984	opls_808	1	SiO	O04	1	0.0000	15.9990
985	opls_800	1	SiO	Si1	1	0.0000	28.0850
986	opls_808	1	SiO	O05	1	0.0000	15.9990
987	opls_808	1	SiO	O06	1	0.0000	15.9990
988	opls_808	1	SiO	O08	1	0.0000	15.9990
989	opls_800	1	SiO	Si2	1	0.0000	28.0850
990	opls_809	1	SiO	O13	1	0.0000	15.9990
991	opls_809	1	SiO	O14	1	0.0000	15.9990
992	opls_808	1	SiO	O0C	1	0.0000	15.9990
993	opls_800	1	SiO	Si3	1	0.0000	28.0850
994	opls_808	1	SiO	O09	1	0.0000	15.9990
995	opls_808	1	SiO	O0F	1	0.0000	15.9990
996	opls_800	1	SiO	Si4	1	0.0000	28.0850
997	opls_808	1	SiO	O0H	1	0.0000	15.9990
998	opls_800	1	SiO	Si5	1	0.0000	28.0850
999	opls_819	1	SiO	H0J	1	0.0000	1.0080
1000	opls_820	1	SiO	H0K	1	0.0000	1.0080
1001	opls_808	1	SiO	O10	1	0.0000	15.9990
1002	opls_808	1	SiO	O0N	1	0.0000	15.9990
1003	opls_800	1	SiO	Si6	1	0.0000	28.0850
1004	opls_808	1	SiO	O0P	1	0.0000	15.9990
1005	opls_800	1	SiO	Si7	1	0.0000	28.0850
1006	opls_826	1	SiO	H0R	1	0.0000	1.0080
1007	opls_808	1	SiO	H0S	1	0.0000	1.0080
1008	opls_808	1	SiO	O11	1	0.0000	15.9990
1009	opls_800	1	SiO	Si0	1	0.0000	28.0850
1010	opls_809	1	SiO	O0X	1	-0.3274	15.9990
1011	opls_809	1	SiO	O11	1	0.0000	15.9990
1012	opls_808	1	SiO	O04	1	0.0000	15.9990
1013	opls_800	1	SiO	Si1	1	0.0000	28.0850
1014	opls_808	1	SiO	O05	1	0.0000	15.9990
1015	opls_808	1	SiO	O06	1	0.0000	15.9990
1016	opls_808	1	SiO	O08	1	0.0000	15.9990
1017	opls_800	1	SiO	Si2	1	0.0000	28.0850
1018	opls_809	1	SiO	O13	1	0.0000	15.9990
1019	opls_809	1	SiO	O14	1	0.0000	15.9990
1020	opls_808	1	SiO	O0C	1	0.0000	15.9990
1021	opls_800	1	SiO	Si3	1	0.0000	28.0850
1022	opls_808	1	SiO	O09	1	0.0000	15.9990
1023	opls_808	1	SiO	O0F	1	0.0000	15.9990
1024	opls_800	1	SiO	Si4	1	0.0000	28.0850
1025	opls_808	1	SiO	O0H	1	0.0000	15.9990
1026	opls_800	1	SiO	Si5	1	0.0000	28.0850
1027	opls_819	1	SiO	H0J	1	0.0000	1.0080
1028	opls_820	1	SiO	H0K	1	0.0000	1.0080
1029	opls_808	1	SiO	O10	1	0.0000	15.9990
1030	opls_808	1	SiO	O0N	1	0.0000	15.9990
1031	opls_800	1	SiO	Si6	1	0.0000	28.0850
1032	opls_808	1	SiO	O0P	1	0.0000	15.9990
1033	opls_800	1	SiO	Si7	1	0.0000	28.0850
1034	opls_826	1	SiO	H0R	1	0.0000	1.0080
1035	opls_808	1	SiO	H0S	1	0.0000	1.0080
1036	opls_808	1	SiO	O11	1	0.0000	15.9990
1037	opls_800	1	SiO	Si0	1	0.0000	28.0850
1038	opls_809	1	SiO	O0X	1	-0.3274	15.9990
1039	opls_809	1	SiO	O11	1	0.0000	15.9990
1040	opls_808	1	SiO	O04	1	0.0000	15.9990
1041	opls_800	1	SiO	Si1	1	0.0000	28.0850
1042	opls_808	1	SiO	O05	1	0.0000	15.9990
1043	opls_808	1	SiO	O06	1	0.0000	15.9990
1044	opls_808	1	SiO	O08	1	0.0000	15.9990
1045	opls_800	1	SiO	Si2	1	0.0000	28.0850
1046	opls_809	1	SiO	O13	1	0.0000	15.9990
1047	opls_809	1	SiO	O14	1	0.0000	15.9990
1048	opls_808	1	SiO	O0C	1	0.0000	15.9990
1049	opls_800	1	SiO	Si3	1	0.0000	28.0850
1050	opls_808	1	SiO	O09	1	0.0000	15.9990
1051	opls_808	1	SiO	O0F	1	0.0000	15.9990
1052	opls_800	1	SiO	Si4	1	0.0000	28.0850
1053	opls_808	1	SiO	O0H	1	0.0000	15.9990
1054	opls_800	1	SiO	Si5	1	0.0000	28.0850
1055	opls_819	1	SiO	H0J	1	0.0000	1.0080
1056	opls_820	1	SiO	H0K	1	0.0000	1.0080
1057	opls_808	1	SiO	O10	1	0.0000	15.9990
1058	opls_808	1	SiO	O0N	1	0.0000	15.9990
1059	opls_800	1	SiO	Si6	1	0.0000	28.0850
1060	opls_808	1	SiO	O0P	1	0.0000	15.9990
1061	opls_800	1	SiO	Si7	1	0.0000	28.0850
1062	opls_826	1	SiO	H0R	1	0.0000	1.0080
1063	opls_808	1	SiO	H0S	1	0.0000	1.0080
1064	opls_808	1	SiO	O11	1	0.0000	15.9990
1065	opls_800	1	SiO	Si0	1	0.0000	28.0850
1066	opls_809	1	SiO	O0X	1	-0.3274	15.9990
1067	opls_809	1	SiO	O11	1	0.0000	15.9990
1068	opls_808	1	SiO	O04	1	0.0000	15.9990
1069	opls_800	1	SiO	Si1	1	0.0000	28.0850
1070	opls_808	1	SiO	O05	1	0.0000	15.9990
1071	opls_808	1	SiO	O06	1	0.0000	15.9990
1072	opls_808	1	SiO	O08	1	0.0000	15.9990
1073	opls_800	1	SiO	Si2	1	0.0000	28.0850
1074	opls_809	1	SiO	O13	1	0.0000	15.9990
1075	opls_809	1	SiO	O14	1	0.0000	15.9990
1076	opls_808	1	SiO	O0C	1	0.0000	15.9990
1077	opls_800	1	SiO	Si3	1	0.0000	28.0850
1078	opls_808	1	SiO	O09	1	0.0000	15.9990
1079	opls_808	1	SiO	O0F	1	0.0000	15.9990
1080	opls_800	1	SiO	Si4	1	0.0000	28.0850
1081	opls_808	1	SiO	O0H	1	0.0000	15.9990
1082	opls_800	1	SiO	Si5	1	0.0000	28.0850
1083	opls_819	1	SiO	H0J	1	0.0000	1.0080
1084	opls_820	1	SiO	H0K	1	0.0000	1.0080
1085	opls_808	1	SiO	O10	1	0.0000	15.9990
1086	opls_808	1	SiO	O0N	1	0.0000	15.9990
1087	opls_800	1	SiO	Si6	1	0.0000	28.0850
1088	opls_808	1	SiO	O0P	1	0.0000	15.9990
1089	opls_800	1	SiO	Si7	1	0.0000	28.0850
1090	opls_826	1	SiO	H0R	1	0.0000	1.0080
1091	opls_808	1	SiO	H0S	1	0.0000	1.0080
1092	opls_808	1	SiO	O11	1	0.0000	15.9990
1093	opls_800	1	SiO	Si0	1	0.0000	28.0850
1094	opls_809	1	SiO	O0X	1	-0.3274	15.9990
1095	opls_809	1	SiO	O11	1	0.0000	15.9990
1096	opls_808	1	SiO	O04	1	0.0000	15.9990
1097	opls_800	1	SiO	Si1	1	0.0000	28.0850
1098	opls_808	1	SiO	O05	1	0.0000	15.9990
1099	opls_808	1	SiO	O06	1	0.0000	15.9990
1100	opls_808	1	SiO	O08	1	0.0000	15.9990
1101	opls_800	1	SiO	Si2	1	0.0000	28.0850
1102	opls_809	1	SiO	O13	1	0.0000	15.9990
1103	opls_809	1	SiO	O14	1	0.0000	15.9990
1104	opls_808	1	SiO	O0C	1	0.0000	15.9990
1105	opls_800	1	SiO	Si3	1	0.0000	28.0850
1106	opls_808	1	SiO	O09	1	0.0000	15.9990
1107	opls_808	1	SiO	O0F	1	0.0000	15.9990
1108	opls_800	1	SiO	Si4	1	0.0000	28.0850
1109	opls_808	1	SiO	O0H	1	0.0000	15.9990
1110	opls_800	1	SiO	Si5	1	0.0000	28.0850
1111	opls_819	1	SiO	H0J	1	0.0000	1.0080
1112	opls_820	1	SiO	H0K	1	0.0000	1.0080
1113	opls_808	1	SiO	O10	1	0.0000	15.9990
1114	opls_808	1	SiO	O0N	1	0.0000	15.9990
1115	opls_800	1	SiO	Si6	1	0.0000	28.0850
1116	opls_808	1	SiO	O0P	1	0.0000	15.9990
1117	opls_800	1	SiO	Si7	1	0.0000	28.0850
1118	opls_826	1	SiO	H0R	1	0.0000	1.0080
1119	opls_808	1	SiO	H0S	1	0.0000	1.0080
1120	opls_808	1	SiO	O11	1	0.0000	15.9990
1121	opls_800	1	SiO	Si0	1	0.0000	28.0850
1122	opls_809	1	SiO	O0X	1	-0.3274	15.9990
1123	opls_809	1	SiO	O11	1	0.0000	15.9990
1124	opls_808	1	SiO	O04	1	0.0000	15.9990
1125	opls_800	1	SiO	Si1	1	0.0000	28.0850
1126	opls_808	1	SiO	O05	1	0.0000	15.9990
1127	opls_808	1	SiO	O06	1	0.0000	15.9990
1128	opls_808	1	SiO	O08	1	0.0000	15.9990
1129	opls_800	1	SiO	Si2	1	0.0000	28.0850
1130	opls_809	1	SiO	O13	1	0.0000	15.9990
1131	opls_809	1	SiO	O14	1	0.0000	15.9990
1132	opls_808	1	SiO	O0C	1	0.0000	15.9990
1133	opls_800	1	SiO	Si3	1	0.0000	28.0850
1134	opls_808	1	SiO	O09	1	0.0000	15.9990
1135	opls_808	1	SiO	O0F	1	0.0000	15.9990
1136	opls_800	1	SiO	Si4	1	0.0000	28.0850
1137	opls_808	1	SiO	O0H	1	0.0000	15.9990
1138	opls_800	1	SiO	Si5	1	0.0000	28.0850
1139	opls_819	1	SiO	H0J	1	0.0000	1.0080
1140	opls_820	1	SiO	H0K	1	0.0000	1.0080
1141	opls_808	1	SiO	O10	1	0.0000	15.9990
1142	opls_808	1	SiO	O0N	1	0.0000	15.9990
1143	opls_800	1	SiO	Si6	1	0.0000	28.0850
1144	opls_808	1	SiO	O0P	1	0.0000	15.9990
1145	opls_800	1	SiO	Si7	1	0.0000	28.0850
1146	opls_826	1	SiO	H0R	1	0.0000	1.0080
1147	opls_808	1	SiO	H0S	1	0.0000	1.0080
1148	opls_808	1	SiO	O11	1	0.0000	15.9990
1149	opls_800	1	SiO	Si0	1	0.0000	28.0850
1150	opls_809	1	SiO	O0X	1	-0.3274	15.9990
1151	opls_809	1	SiO	O11	1	0.0000	15.9990
1152	opls_808	1	SiO	O04	1	0.0000	15.9990
1153	opls_800	1	SiO	Si1	1	0.0000	28.0850
1154	opls_808	1	SiO	O05	1	0.0000	15.9990
1155	opls_808	1	SiO	O06	1	0.0000	15.9990
1156	opls_808	1	SiO	O08	1	0.0000	15.9990
1157	opls_800	1	SiO	Si2	1	0.0000	28.0850
1158	opls_809	1	SiO	O13	1	0.0000	15.9990
1159	opls_809	1	SiO	O14	1	0.0000	15.9990
1160	opls_808	1	SiO	O0C	1	0.0000	15.9990
1161	opls_800	1	SiO	Si3	1	0.0000	28.0850
1162	opls_808	1	SiO	O09	1	0.0000	15.9990
1163	opls_808	1	SiO	O0F	1	0.0000	15.9990
1164	opls_800	1	SiO	Si4	1	0.0000	28.0850
1165	opls_808	1	SiO	O0H	1	0.0000	15.9990
1166	opls_800	1	SiO	Si5	1	0.0000	28.0850
1167	opls_819	1	SiO	H0J	1	0.0000	1.0080
1168	opls_820	1	SiO	H0K	1	0.0000	1.0080
1169	opls_808	1	SiO	O10	1	0.0000	15.9990
1170	opls_808	1	SiO	O0N	1	0.0000	15.9990
1171	opls_800	1	SiO	Si6	1	0.0000	28.0850
1172	opls_808	1	SiO	O0P	1	0.0000	15.9990
1173	opls_800	1	SiO	Si7	1	0.0000	28.0850
1174	opls_826	1	SiO	H0R	1	0.0000	1.0080
1175	opls_808	1	SiO	H0S	1	0.0000	1.0080
1176	opls_808	1	SiO	O11	1	0.0000	15.9990
1177	opls_800	1	SiO	Si0	1	0.0000	28.0850
1178	opls_809	1	SiO	O0X	1	-0.3274	15.9990
1179	opls_809	1	SiO	O11	1	0.0000	15.9990
1180	opls_808	1	SiO	O04	1	0.0000	15.9990
1181	opls_800	1	SiO	Si1	1	0.0000	28.0850
1182	opls_808	1	SiO	O05	1	0.0000	15.9990
1183	opls_808	1	SiO	O06	1	0.0000	15.9990
1184	opls_808	1	SiO	O08	1	0.0000	15.9990
1185	opls_800	1	SiO	Si2	1	0.0000	28.0850
1186	opls_809	1	SiO	O13	1	0.0000	15.9990
1187	opls_809	1	SiO	O14	1	0.0000	15.9990
1188	opls_808	1	SiO	O0C	1	0.0000	15.9990
1189	opls_800	1	SiO	Si3	1	0.0000	28.0850
1190	opls_808	1	SiO	O09	1	0.0000	15.9990
1191	opls_808	1	SiO	O0F	1	0.0000	15.9990
1192	opls_800	1	SiO	Si4	1	0.0000	28.0850
1193	opls_808	1	SiO	O0H	1	0.0000	15.9990
1194	opls_800	1	SiO	Si5	1	0.0000	28.0850
1195	opls_819	1	SiO	H0J	1	0.0000	1.0080
1196	opls_820	1	SiO	H0K	1	0.0000	1.0080
1197	opls_808	1	SiO	O10	1	0.0000	15.9990
1198	opls_808	1	SiO	O0N	1	0.0000	15.9990
1199	opls_800	1	SiO	Si6	1	0.0000	28.0850
1200	opls_808	1	SiO	O0P	1	0.0000	15.9990
1201	opls_800	1	SiO	Si7	1	0.0000	28.0850
1202	opls_826	1	SiO	H0R	1	0.0000	1.0080
1203	opls_808	1	SiO	H0S	1	0.0000	1.0080
1204	opls_808	1	SiO	O11	1	0.0000	15.9990
1205	opls_800	1	SiO	Si0	1	0.0000	28.0850
1206	opls_809	1	SiO	O0X	1	-0.3274	15.9990
1207	opls_809	1	SiO	O11	1	0.0000	15.9990
1208	opls_808	1	SiO	O04	1	0.0000	15.9990
1209	opls_800	1	SiO	Si1	1	0.0000	28.0850
1210	opls_808	1	SiO	O05	1	0.0000	15.9990
1211	opls_808	1	SiO	O06	1	0.0000	15.9990
1212	opls_808	1	SiO	O08	1	0.0000	15.9990
1213	opls_800	1	SiO	Si2	1	0.0000	28.0850
1214	opls_809	1	SiO	O13	1	0.0000	15.9990
1215	opls_809	1	SiO	O14	1	0.0000	15.9990
1216	opls_808	1	SiO	O0C	1	0.0000	15.9990
1217	opls_800	1	SiO	Si3	1	0.0000	28.0850
1218	opls_808	1	SiO	O09	1	0.0000	15.9990
1219	opls_808	1	SiO	O0F	1	0.0000	15.9990
1220	opls_800	1	SiO	Si4	1	0.0000	28.0850
1221	opls_808	1	SiO	O0H	1	0.0000	15.9990
1222	opls_800	1	SiO	Si5	1	0.0000	28.0850
1223	opls_819	1	SiO	H0J	1	0.0000	1.0080
1224	opls_820	1	SiO	H0K	1	0.0000	1.0080
1225	opls_808	1	SiO	O10	1	0.0000	15.9990
1226	opls_808	1	SiO	O0N	1	0.0000	15.9990
1227	opls_800	1	SiO	Si6	1	0.0000	28.0850
1228	opls_808	1	SiO	O0P	1	0.0000	15.9990
1229	opls_800	1	SiO	Si7	1	0.0000	28.0850
1230	opls_826	1	SiO	H0R	1	0.0000	1.0080
1231	opls_808	1	SiO	H0S	1	0.0000	1.0080
1232	opls_808	1	SiO	O11	1	0.0000	15.9990
1233	opls_800	1	SiO	Si0	1	0.0000	28.0850
1234	opls_809	1	SiO	O0X	1	-0.3274	15.9990
1235	opls_809	1	SiO	O11	1	0.0000	15.9990
1236	opls_808	1	SiO	O04	1	0.0000	15.9990
1237	opls_800	1	SiO	Si1	1	0.0000	28.0850
1238	opls_808	1	SiO	O05	1	0.0000	15.9990
1239	opls_808	1	SiO	O06	1	0.0000	15.9990
1240	opls_808	1	SiO	O08	1	0.0000	15.9990
1241	opls_800	1	SiO	Si2	1	0.0000	28.0850
1242	opls_809	1	SiO	O13	1	0.0000	15.9990
1243	opls_809	1	SiO	O14	1	0.0000	15.9990
1244	opls_808	1	SiO	O0C	1	0.0000	15.9990
1245	opls_800	1	SiO	Si3	1	0.0000	28.0850
1246	opls_808	1	SiO	O09	1	0.0000	15.9990
1247	opls_808	1	SiO	O0F	1	0.0000	15.9990
1248	opls_800	1	SiO	Si4	1	0.0000	28.0850
1249	opls_808	1	SiO	O0H	1	0.0000	15.9990
1250	opls_800	1	SiO	Si5	1	0.0000	28.0850
1251	opls_819	1	SiO	H0J	1	0.0000	1.0080
1252	opls_820	1	SiO	H0K	1	0.0000	1.0080
1253	opls_808	1	SiO	O10	1	0.0000	15.9990
1254	opls_808	1	SiO	O0N	1	0.0000	15.9990
1255	opls_800	1	SiO	Si6	1	0.0000	28.0850
1256	opls_808	1	SiO	O0P	1	0.0000	15.9990
1257	opls_800	1	SiO	Si7	1	0.0000	28.0850
1258	opls_826	1	SiO	H0R	1	0.0000	1.0080
1259	opls_808	1	SiO	H0S	1	0.0000	1.0080
1260	opls_808	1	SiO	O11	1	0.0000	15.9990
1261	opls_800	1	SiO	Si0	1	0.0000	28.0850
1262	opls_809	1	SiO	O0X	1	-0.3274	15.9990
1263	opls_809	1	SiO	O11	1	0.0000	15.9990
1264	opls_808	1	SiO	O04	1	0.0000	15.9990
1265	opls_800	1	SiO	Si1	1	0.0000	28.0850
1266	opls_808	1	SiO	O05	1	0.0000	15.9990
1267	opls_808	1	SiO	O06	1	0.0000	15.9990
1268	opls_808	1	SiO	O08	1	0.0000	15.9990
1269	opls_800	1	SiO	Si2	1	0.0000	28.0850
1270	opls_809	1	SiO	O13	1	0.0000	15.9990
1271	opls_809	1	SiO	O14	1	0.0000	15.9990
1272	opls_808	1	SiO	O0C	1	0.0000	15.9990
1273	opls_800	1	SiO	Si3	1	0.0000	28.0850
1274	opls_808	1	SiO	O09	1	0.0000	15.9990
1275	opls_808	1	SiO	O0F	1	0.0000	15.9990
1276	opls_800	1	SiO	Si4	1	0.0000	28.0850
1277	opls_808	1	SiO	O0H	1	0.0000	15.9990
1278	opls_800	1	SiO	Si5	1	0.0000	28.0850
1279	opls_819	1	SiO	H0J	1	0.0000	1.0080
1280	opls_820	1	SiO	H0K	1	0.0000	1.0080
1281	opls_808	1	SiO	O10	1	0.0000	15.9990
1282	opls_808	1	SiO	O0N	1	0.0000	15.9990
1283	opls_800	1	SiO	Si6	1	0.0000	28.0850
1284	opls_808	1	SiO	O0P	1	0.0000	15.9990
1285	opls_800	1	SiO	Si7	1	0.0000	28.0850
1286	opls_826	1	SiO	H0R	1	0.0000	1.0080
1287	opls_808	1	SiO	H0S	1	0.0000	1.0080
1288	opls_808	1	SiO	O11	1	0.0000	15.9990
1289	opls_800	1	SiO	Si0	1	0.0000	28.0850
1290	opls_809	1	SiO	O0X	1	-0.3274	15.9990
1291	opls_809	1	SiO	O11	1	0.0000	15.9990
1292	opls_808	1	SiO	O04	1	0.0000	15.9990
1293	opls_800	1	SiO	Si1	1	0.0000	28.0850
1294	opls_808	1	SiO	O05	1	0.0000	15.9990
1295	opls_808	1	SiO	O06	1	0.0000	15.9990
1296	opls_808	1	SiO	O08	1	0.0000	15.9990
1297	opls_800	1	SiO	Si2	1	0.0000	28.0850
1298	opls_809	1	SiO	O13	1	0.0000	15.9990
1299	opls_809	1	SiO	O14	1	0.0000	15.9990
1300	opls_808	1	SiO	O0C	1	0.0000	15.9990
1301	opls_800	1	SiO	Si3	1	0.0000	28.0850
1302	opls_808	1	SiO	O09	1	0.0000	15.9990
1303	opls_808	1	SiO	O0F	1	0.0000	15.9990
1304	opls_800	1	SiO	Si4	1	0.0000	28.0850
1305	opls_808	1	SiO	O0H	1	0.0000	15.9990
1306	opls_800	1	SiO	Si5	1	0.0000	28.0850
1307	opls_819	1	SiO	H0J	1	0.0000	1.0080
1308	opls_820	1	SiO	H0K	1	0.0000	1.0080
1309	opls_808	1	SiO	O10	1	0.0000	15.9990
1310	opls_808	1	SiO	O0N	1	0.0000	15.9990
1311	opls_800	1	SiO	Si6	1	0.0000	28.0850
1312	opls_808	1	SiO	O0P	1	0.0000	15.9990
1313	opls_800	1	SiO	Si7	1	0.0000	28.0850
1314	opls_826	1	SiO	H0R	1	0.0000	1.0080
1315	opls_808	1	SiO	H0S	1	0.0000	1.0080
1316	opls_808	1	SiO	O11	1	0.0000	15.9990
1317	opls_800	1	SiO	Si0	1	0.0000	28.0850
1318	opls_809	1	SiO	O0X	1	-0.3274	15.9990
1319	opls_809	1	SiO	O11	1	0.0000	15.9990
1320	opls_808	1	SiO	O04	1	0.0000	15.9990
1321	opls_800	1	SiO	Si1	1	0.0000	28.0850
1322	opls_808	1	SiO	O05	1	0.0000	15.9990
1323	opls_808	1	SiO	O06	1	0.0000	15.9990
1324	opls_808	1	SiO	O08	1	0.0000	15.9990
1325	opls_800	1	SiO	Si2	1	0.0000	28.0850
1326	opls_809	1	SiO	O13	1	0.0000	15.9990
1327	opls_809	1	SiO	O14	1	0.0000	15.9990
1328	opls_808	1	SiO	O0C	1	0.0000	15.9990
1329	opls_800	1	SiO	Si3	1	0.0000	28.0850
1330	opls_808	1	SiO	O09	1	0.0000	15.9990
1331	opls_808	1	SiO	O0F	1	0.0000	15.9990
1332	opls_800	1	SiO	Si4	1	0.0000	28.0850
1333	opls_808	1	SiO	O0H	1	0.0000	15.9990
1334	opls_800	1	SiO	Si5	1	0.0000	28.0850
1335	opls_819	1	SiO	H0J	1	0.0000	1.0080
1336	opls_820	1	SiO	H0K	1	0.0000	1.0080
1337	opls_808	1	SiO	O10	1	0.0000	15.9990
1338	opls_808	1	SiO	O0N	1	0.0000	15.9990
1339	opls_800	1	SiO	Si6	1	0.0000	28.0850
1340	opls_808	1	SiO	O0P	1	0.0000	15.9990
1341	opls_800	1	SiO	Si7	1	0.0000	28.0850
1342	opls_826	1	SiO	H0R	1	0.0000	1.0080
1343	opls_808	1	SiO	H0S	1	0.0000	1.0080
1344	opls_808	1	SiO	O11	1	0.0000	15.9990
1345	opls_800	1	SiO	Si0	1	0.0000	28.0850
1346	opls_809	1	SiO	O0X	1	-0.3274	15.9990
1347	opls_809	1	SiO	O11	1	0.0000	15.9990
1348	opls_808	1	SiO	O04	1	0.0000	15.9990
1349	opls_800	1	SiO	Si1	1	0.0000	28.0850
1350	opls_808	1	SiO	O05	1	0.0000	15.9990
1351	opls_808	1	SiO	O06	1	0.0000	15.9990
1352	opls_808	1	SiO	O08	1	0.0000	15.9990
1353	opls_800	1	SiO	Si2	1	0.0000	28.0850
1354	opls_809	1	SiO	O13	1	0.0000	15.9990
1355	opls_809	1	SiO	O14	1	0.0000	15.9990
1356	opls_808	1	SiO	O0C	1	0.0000	15.9990
1357	opls_800	1	SiO	Si3	1	0.0000	28.0850
1358	opls_808	1	SiO	O09	1	0.0000	15.9990
1359	opls_808	1	SiO	O0F	1	0.0000	15.9990
1360	opls_800	1	SiO	Si4	1	0.0000	28.0850
1361	opls_808	1	SiO	O0H	1	0.0000	15.9990
1362	opls_800	1	SiO	Si5	1	0.0000	28.0850
1363	opls_819	1	SiO	H0J	1	0.0000	1.0080
1364	opls_820	1	SiO	H0K	1	0.0000	1.0080
1365	opls_808	1	SiO	O10	1	0.0000	15.9990
1366	opls_808	1	SiO	O0N	1	0.0000	15.9990
1367	opls_800	1	SiO	Si6	1	0.0000	28.0850
1368	opls_808	1	SiO	O0P	1	0.0000	15.9990
1369	opls_800	1	SiO	Si7	1	0.0000	28.0850
1370	opls_826	1	SiO	H0R	1	0.0000	1.0080
1371	opls_808	1	SiO	H0S	1	0.0000	1.0080
1372	opls_808	1	SiO	O11	1	0.0000	15.9990
1373	opls_800	1	SiO	Si0	1	0.0000	28.0850
1374	opls_809	1	SiO	O0X	1	-0.3274	15.9990
1375	opls_809	1	SiO	O11	1	0.0000	15.9990
1376	opls_808	1	SiO	O04	1	0.0000	15.9990
1377	opls_800	1	SiO	Si1	1	0.0000	28.0850
1378	opls_808	1	SiO	O05	1	0.0000	15.9990
1379	opls_808	1	SiO	O06	1	0.0000	15.9990
1380	opls_808	1	SiO	O08	1	0.0000	15.9990
1381	opls_800	1	SiO	Si2	1	0.0000	28.0850
1382	opls_809	1	SiO	O13	1	0.0000	15.9990
1383	opls_809	1	SiO	O14	1	0.0000	15.9990
1384	opls_808	1	SiO	O0C	1	0.0000	15.9990
1385	opls_800	1	SiO	Si3	1	0.0000	28.0850
1386	opls_808	1	SiO	O09	1	0.0000	15.9990
1387	opls_808	1	SiO	O0F	1	0.0000	15.9990
1388	opls_800	1	SiO	Si4	1	0.0000	28.0850
1389	opls_808	1	SiO	O0H	1	0.0000	15.9990
1390	opls_800	1	SiO	Si5	1	0.0000	28.0850
1391	opls_819	1	SiO	H0J	1	0.0000	1.0080
1392	opls_820	1	SiO	H0K	1	0.0000	1.0080
1393	opls_808	1	SiO	O10	1	0.0000	15.9990
1394	opls_808	1	SiO	O0N	1	0.0000	15.9990
1395	opls_800	1	SiO	Si6	1	0.0000	28.0850
1396	opls_808	1	SiO	O0P	1	0.0000	15.9990
1397	opls_800	1	SiO	Si7	1	0.0000	28.0850
1398	opls_826	1	SiO	H0R	1	0.0000	1.0080
1399	opls_808	1	SiO	H0S	1	0.0000	1.0080
1400	opls_808	1	SiO	O11	1	0.0000	15.9990
1401	opls_800	1	SiO	Si0	1	0.0000	28.0850
1402	opls_809	1	SiO	O0X	1	-0.3274	15.9990
1403	opls_809	1	SiO	O11	1	0.0000	15.9990
1404	opls_808	1	SiO	O04	1	0.0000	15.9990
1405	opls_800	1	SiO	Si1	1	0.0000	28.0850
1406	opls_808	1	SiO	O05	1	0.0000	15.9990
1407	opls_808	1	SiO	O06	1	0.0000	15.9990
1408	opls_808	1	SiO	O08	1	0.0000	15.9990
1409	opls_800	1	SiO	Si2	1	0.0000	28.0850
1410	opls_809	1	SiO	O13	1	0.0000	15.9990
1411	opls_809	1	SiO	O14	1	0.0000	15.9990
1412	opls_808	1	SiO	O0C	1	0.0000	15.9990
1413	opls_800	1	SiO	Si3	1	0.0000	28.0850
1414	opls_808	1	SiO	O09	1	0.0000	15.9990
1415	opls_808	1	SiO	O0F	1	0.0000	15.9990
1416	opls_800	1	SiO	Si4	1	0.0000	28.0850
1417	opls_808	1	SiO	O0H	1	0.0000	15.9990
1418	opls_800	1	SiO	Si5	1	0.0000	28.0850
1419	opls_819	1	SiO	H0J	1	0.0000	1.0080
1420	opls_820	1	SiO	H0K	1	0.0000	1.0080
1421	opls_808	1	SiO	O10	1	0.0000	15.9990
1422	opls_808	1	SiO	O0N	1	0.0000	15.9990
1423	opls_800	1	SiO	Si6	1	0.0000	28.0850
1424	opls_808	1	SiO	O0P	1	0.0000	15.9990
1425	opls_800	1	SiO	Si7	1	0.0000	28.0850
1426	opls_826	1	SiO	H0R	1	0.0000	1.0080
1427	opls_808	1	SiO	H0S	1	0.0000	1.0080
1428	opls_808	1	SiO	O11	1	0.0000	15.9990
1429	opls_800	1	SiO	Si0	1	0.0000	28.0850
1430	opls_809	1	SiO	O0X	1	-0.3274	15.9990
1431	opls_809	1	SiO	O11	1	0.0000	15.9990
1432	opls_808	1	SiO	O04	1	0.0000	15.9990
1433	opls_800	1	SiO	Si1	1	0.0000	28.0850
1434	opls_808	1	SiO	O05	1	0.0000	15.9990
1435	opls_808	1	SiO	O06	1	0.0000	15.9990
1436	opls_808	1	SiO	O08	1	0.0000	15.9990
1437	opls_800	1	SiO	Si2	1	0.0000	28.0850
1438	opls_809	1	SiO	O13	1	0.0000	15.9990
1439	opls_809	1	SiO	O14	1	0.0000	15.9990
1440	opls_808	1	SiO	O0C	1	0.0000	15.9990
1441	opls_800	1	SiO	Si3	1	0.0000	28.0850
1442	opls_808	1	SiO	O09	1	0.0000	15.9990
1443	opls_808	1	SiO	O0F	1	0.0000	15.9990
1444	opls_800	1	SiO	Si4	1	0.0000	28.0850
1445	opls_808	1	SiO	O0H	1	0.0000	15.9990
1446	opls_800	1	SiO	Si5	1	0.0000	28.0850
1447	opls_819	1	SiO	H0J	1	0.0000	1.0080
1448	opls_820	1	SiO	H0K	1	0.0000	1.0080
1449	opls_808	1	SiO	O10	1	0.0000	15.9990
1450	opls_808	1	SiO	O0N	1	0.0000	15.9990
1451	opls_800	1	SiO	Si6	1	0.0000	28.0850
1452	opls_808	1	SiO	O0P	1	0.0000	15.9990
1453	opls_800	1	SiO	Si7	1	0.0000	28.0850
1454	opls_826	1	SiO	H0R	1	0.0000	1.0080
1455	opls_808	1	SiO	H0S	1	0.0000	1.0080
1456	opls_808	1	SiO	O11	1	0.0000	15.9990
1457	opls_800	1	SiO	Si0	1	0.0000	28.0850
1458	opls_809	1	SiO	O0X	1	-0.3274	15.9990
1459	opls_809	1	SiO	O11	1	0.0000	15.9990
1460	opls_808	1	SiO	O04	1	0.0000	15.9990
1461	opls_800	1	SiO	Si1	1	0.0000	28.0850
1462	opls_808	1	SiO	O05	1	0.0000	15.9990
1463	opls_808	1	SiO	O06	1	0.0000	15.9990
1464	opls_808	1	SiO	O08	1	0.0000	15.9990
1465	opls_800	1	SiO	Si2	1	0.0000	28.0850
1466	opls_809	1	SiO	O13	1	0.0000	15.9990
1467	opls_809	1	SiO	O14	1	0.0000	15.9990
1468	opls_808	1	SiO	O0C	1	0.0000	15.9990
1469	opls_800	1	SiO	Si3	1	0.0000	28.0850
1470	opls_808	1	SiO	O09	1	0.0000	15.9990
1471	opls_808	1	SiO	O0F	1	0.0000	15.9990
1472	opls_800	1	SiO	Si4	1	0.0000	28.0850
1473	opls_808	1	SiO	O0H	1	0.0000	15.9990
1474	opls_800	1	SiO	Si5	1	0.0000	28.0850
1475	opls_819	1	SiO	H0J	1	0.0000	1.0080
1476	opls_820	1	SiO	H0K	1	0.0000	1.0080
1477	opls_808	1	SiO	O10	1	0.0000	15.9990
1478	opls_808	1	SiO	O0N	1	0.0000	15.9990
1479	opls_800	1	SiO	Si6	1	0.0000	28.0850
1480	opls_808	1	SiO	O0P	1	0.0000	15.9990
1481	opls_800	1	SiO	Si7	1	0.0000	28.0850
1482	opls_826	1	SiO	H0R	1	0.0000	1.0080
1483	opls_808	1	SiO	H0S	1	0.0000	1.0080
1484	opls_808	1	SiO	O11	1	0.0000	15.9990
1485	opls_800	1	SiO	Si0	1	0.0000	28.0850
1486	opls_809	1	SiO	O0X	1	-0.3274	15.9990
1487	opls_809	1	SiO	O11	1	0.0000	15.9990
1488	opls_808	1	SiO	O04	1	0.0000	15.9990
1489	opls_800	1	SiO	Si1	1	0.0000	28.0850
1490	opls_808	1	SiO	O05	1	0.0000	15.9990
1491	opls_808	1	SiO	O06	1	0.0000	15.9990
1492	opls_808	1	SiO	O08	1	0.0000	15.9990
1493	opls_800	1	SiO	Si2	1	0.0000	28.0850
1494	opls_809	1	SiO	O13	1	0.0000	15.9990
1495	opls_809	1	SiO	O14	1	0.0000	15.9990
1496	opls_808	1	SiO	O0C	1	0.0000	15.9990
1497	opls_800	1	SiO	Si3	1	0.0000	28.0850
1498	opls_808	1	SiO	O09	1	0.0000	15.9990
1499	opls_808	1	SiO	O0F	1	0.0000	15.9990
1500	opls_800	1	SiO	Si4	1	0.0000	28.0850
1501	opls_808	1	SiO	O0H	1	0.0000	15.9990
1502	opls_800	1	SiO	Si5	1	0.0000	28.0850
1503	opls_819	1	SiO	H0J	1	0.0000	1.0080
1504	opls_820	1	SiO	H0K	1	0.0000	1.0080
1505	opls_808	1	SiO	O10	1	0.0000	15.9990
1506	opls_808	1	SiO	O0N	1	0.0000	15.9990
1507	opls_800	1	SiO	Si6	1	0.0000	28.0850
1508	opls_808	1	SiO	O0P	1	0.0000	15.9990
1509	opls_800	1	SiO	Si7	1	0.0000	28.0850
1510	opls_826	1	SiO	H0R	1	0.0000	1.0080
1511	opls_808	1	SiO	H0S	1	0.0000	1.0080
1512	opls_808	1	SiO	O11	1	0.0000	15.9990
1513	opls_800	1	SiO	Si0	1	0.0000	28.0850
1514	opls_809	1	SiO	O0X	1	-0.3274	15.9990
1515	opls_809	1	SiO	O11	1	0.0000	15.9990
1516	opls_808	1	SiO	O04	1	0.0000	15.9990
1517	opls_800	1	SiO	Si1	1	0.0000	28.0850
1518	opls_808	1	SiO	O05	1	0.0000	15.9990
1519	opls_808	1	SiO	O06	1	0.0000	15.9990
1520	opls_808	1	SiO	O08	1	0.0000	15.9990
1521	opls_800	1	SiO	Si2	1	0.0000	28.0850
1522	opls_809	1	SiO	O13	1	0.0000	15.9990
1523	opls_809	1	SiO	O14	1	0.0000	15.9990
1524	opls_808	1	SiO	O0C	1	0.0000	15.9990
1525	opls_800	1	SiO	Si3	1	0.0000	28.0850
1526	opls_808	1	SiO	O09	1	0.0000	15.9990
1527	opls_808	1	SiO	O0F	1	0.0000	15.9990
1528	opls_800	1	SiO	Si4	1	0.0000	28.0850
1529	opls_808	1	SiO	O0H	1	0.0000	15.9990
1530	opls_800	1	SiO	Si5	1	0.0000	28.0850
1531	opls_819	1	SiO	H0J	1	0.0000	1.0080
1532	opls_820	1	SiO	H0K	1	0.0000	1.0080
1533	opls_808	1	SiO	O10	1	0.0000	15.9990
1534	opls_808	1	SiO	O0N	1	0.0000	15.9990
1535	opls_800	1	SiO	Si6	1	0.0000	28.0850
1536	opls_808	1	SiO	O0P	1	0.0000	15.9990
1537	opls_800	1	SiO	Si7	1	0.0000	28.0850
1538	opls_826	1	SiO	H0R	1	0.0000	1.0080
1539	opls_808	1	SiO	H0S	1	0.0000	1.0080
1540	opls_808	1	SiO	O11	1	0.0000	15.9990
1541	opls_800	1	SiO	Si0	1	0.0000	28.0850
1542	opls_809	1	SiO	O0X	1	-0.3274	15.9990
1543	opls_809	1	SiO	O11	1	0.0000	15.9990
1544	opls_808	1	SiO	O04	1	0.0000	15.9990
1545	opls_800	1	SiO	Si1	1	0.0000	28.0850
1546	opls_808	1	SiO	O05	1	0.0000	15.9990
1547	opls_808	1	SiO	O06	1	0.0000	15.9990
1548	opls_808	1	SiO	O08	1	0.0000	15.9990
1549	opls_800	1	SiO	Si2	1	0.0000	28.0850
1550	opls_809	1	SiO	O13	1	0.0000	15.9990
1551	opls_809	1	SiO	O14	1	0.0000	15.9990
1552	opls_808	1	SiO	O0C	1	0.0000	15.9990
1553	opls_800	1	SiO	Si3	1	0.0000	28.0850
1554	opls_808	1	SiO	O09	1	0.0000	15.9990
1555	opls_808	1	SiO	O0F	1	0.0000	15.9990
1556	opls_800	1	SiO	Si4	1	0.0000	28.0850
1557	opls_808	1	SiO	O0H	1	0.0000	15.9990
1558	opls_800	1	SiO	Si5	1	0.0000	28.0850
1559	opls_819	1	SiO	H0J	1	0.0000	1.0080
1560	opls_820	1	SiO	H0K	1	0.0000	1.0080
1561	opls_808	1	SiO	O10	1	0.0000	15.9990
1562	opls_808	1	SiO	O0N	1	0.0000	15.9990
1563	opls_800	1	SiO	Si6	1	0.0000	28.0850
1564	opls_808	1	SiO	O0P	1	0.0000	15.9990
1565	opls_800	1	SiO	Si7	1	0.0000	28.0850
1566	opls_826	1	SiO	H0R	1	0.0000	1.0080
1567	opls_808	1	SiO	H0S	1	0.0000	1.0080
1568	opls_808	1	SiO	O11	1	0.0000	15.9990
1569	opls_800	1	SiO	Si0	1	0.0000	28.0850
1570	opls_809	1	SiO	O0X	1	-0.3274	15.9990
1571	opls_809	1	SiO	O11	1	0.0000	15.9990
1572	opls_808	1	SiO	O04	1	0.0000	15.9990
1573	opls_800	1	SiO	Si1	1	0.0000	28.0850
1574	opls_808	1	SiO	O05	1	0.0000	15.9990
1575	opls_808	1	SiO	O06	1	0.0000	15.9990
1576	opls_808	1	SiO	O08	1	0.0000	15.9990
1577	opls_800	1	SiO	Si2	1	0.0000	28.0850
1578	opls_809	1	SiO	O13	1	0.0000	15.9990
1579	opls_809	1	SiO	O14	1	0.0000	15.9990
1580	opls_808	1	SiO	O0C	1	0.0000	15.9990
1581	opls_800	1	SiO	Si3	1	0.0000	28.0850
1582	opls_808	1	SiO	O09	1	0.0000	15.9990
1583	opls_808	1	SiO	O0F	1	0.0000	15.9990
1584	opls_800	1	SiO	Si4	1	0.0000	28.0850
1585	opls_808	1	SiO	O0H	1	0.0000	15.9990
1586	opls_800	1	SiO	Si5	1	0.0000	28.0850
1587	opls_819	1	SiO	H0J	1	0.0000	1.0080
1588	opls_820	1	SiO	H0K	1	0.0000	1.0080
1589	opls_808	1	SiO	O10	1	0.0000	15.9990
1590	opls_808	1	SiO	O0N	1	0.0000	15.9990
1591	opls_800	1	SiO	Si6	1	0.0000	28.0850
1592	opls_808	1	SiO	O0P	1	0.0000	15.9990
1593	opls_800	1	SiO	Si7	1	0.0000	28.0850
1594	opls_826	1	SiO	H0R	1	0.0000	1.0080
1595	opls_808	1	SiO	H0S	1	0.0000	1.0080
1596	opls_808	1	SiO	O11	1	0.0000	15.9990
1597	opls_800	1	SiO	Si0	1	0.0000	28.0850
1598	opls_809	1	SiO	O0X	1	-0.3274	15.9990
1599	opls_809	1	SiO	O11	1	0.0000	15.9990
1600	opls_808	1	SiO	O04	1	0.0000	15.9990
1601	opls_800	1	SiO	Si1	1	0.0000	28.0850
1602	opls_808	1	SiO	O05	1	0.0000	15.9990
1603	opls_808	1	SiO	O06	1	0.0000	15.9990
1604	opls_808	1	SiO	O08	1	0.0000	15.9990
1605	opls_800	1	SiO	Si2	1	0.0000	28.0850
1606	opls_809	1	SiO	O13	1	0.0000	15.9990
1607	opls_809	1	SiO	O14	1	0.0000	15.9990
1608	opls_808	1	SiO	O0C	1	0.0000	15.9990
1609	opls_800	1	SiO	Si3	1	0.0000	28.0850
1610	opls_808	1	SiO	O09	1	0.0000	15.9990
1611	opls_808	1	SiO	O0F	1	0.0000	15.9990
1612	opls_800	1	SiO	Si4	1	0.0000	28.0850
1613	opls_808	1	SiO	O0H	1	0.0000	15.9990
1614	opls_800	1	SiO	Si5	1	0.0000	28.0850
1615	opls_819	1	SiO	H0J	1	0.0000	1.0080
1616	opls_820	1	SiO	H0K	1	0.0000	1.0080
1617	opls_808	1	SiO	O10	1	0.0000	15.9990
1618	opls_808	1	SiO	O0N	1	0.0000	15.9990
1619	opls_800	1	SiO	Si6	1	0.0000	28.0850
1620	opls_808	1	SiO	O0P	1	0.0000	15.9990
1621	opls_800	1	SiO	Si7	1	0.0000	28.0850
1622	opls_826	1	SiO	H0R	1	0.0000	1.0080
1623	opls_808	1	SiO	H0S	1	0.0000	1.0080
1624	opls_808	1	SiO	O11	1	0.0000	15.9990
1625	opls_800	1	SiO	Si0	1	0.0000	28.0850
1626	opls_809	1	SiO	O0X	1	-0.3274	15.9990
1627	opls_809	1	SiO	O11	1	0.0000	15.9990
1628	opls_808	1	SiO	O04	1	0.0000	15.9990
1629	opls_800	1	SiO	Si1	1	0.0000	28.0850
1630	opls_808	1	SiO	O05	1	0.0000	15.9990
1631	opls_808	1	SiO	O06	1	0.0000	15.9990
1632	opls_808	1	SiO	O08	1	0.0000	15.9990
1633	opls_800	1	SiO	Si2	1	0.0000	28.0850
1634	opls_809	1	SiO	O13	1	0.0000	15.9990
1635	opls_809	1	SiO	O14	1	0.0000	15.9990
1636	opls_808	1	SiO	O0C	1	0.0000	15.9990
1637	opls_800	1	SiO	Si3	1	0.0000	28.0850
1638	opls_808	1	SiO	O09	1	0.0000	15.9990
1639	opls_808	1	SiO	O0F	1	0.0000	15.9990
1640	opls_800	1	SiO	Si4	1	0.0000	28.0850
1641	opls_808	1	SiO	O0H	1	0.0000	15.9990
1642	opls_800	1	SiO	Si5	1	0.0000	28.0850
1643	opls_819	1	SiO	H0J	1	0.0000	1.0080
1644	opls_820	1	SiO	H0K	1	0.0000	1.0080
1645	opls_808	1	SiO	O10	1	0.0000	15.9990
1646	opls_808	1	SiO	O0N	1	0.0000	15.9990
1647	opls_800	1	SiO	Si6	1	0.0000	28.0850
1648	opls_808	1	SiO	O0P	1	0.0000	15.9990
1649	opls_800	1	SiO	Si7	1	0.0000	28.0850
1650	opls_826	1	SiO	H0R	1	0.0000	1.0080
1651	opls_808	1	SiO	H0S	1	0.0000	1.0080
1652	opls_808	1	SiO	O11	1	0.0000	15.9990
1653	opls_800	1	SiO	Si0	1	0.0000	28.0850
1654	opls_809	1	SiO	O0X	1	-0.3274	15.9990
1655	opls_809	1	SiO	O11	1	0.0000	15.9990
1656	opls_808	1	SiO	O04	1	0.0000	15.9990
1657	opls_800	1	SiO	Si1	1	0.0000	28.0850
1658	opls_808	1	SiO	O05	1	0.0000	15.9990
1659	opls_808	1	SiO	O06	1	0.0000	15.9990
1660	opls_808	1	SiO	O08	1	0.0000	15.9990
1661	opls_800	1	SiO	Si2	1	0.0000	28.0850
1662	opls_809	1	SiO	O13	1	0.0000	15.9990
1663	opls_809	1	SiO	O14	1	0.0000	15.9990
1664	opls_808	1	SiO	O0C	1	0.0000	15.9990
1665	opls_800	1	SiO	Si3	1	0.0000	28.0850
1666	opls_808	1	SiO	O09	1	0.0000	15.9990
1667	opls_808	1	SiO	O0F	1	0.0000	15.9990
1668	opls_800	1	SiO	Si4	1	0.0000	28.0850
1669	opls_808	1	SiO	O0H	1	0.0000	15.9990
1670	opls_800	1	SiO	Si5	1	0.0000	28.0850
1671	opls_819	1	SiO	H0J	1	0.0000	1.0080
1672	opls_820	1	SiO	H0K	1	0.0000	1.0080
1673	opls_808	1	SiO	O10	1	0.0000	15.9990
1674	opls_808	1	SiO	O0N	1	0.0000	15.9990
1675	opls_800	1	SiO	Si6	1	0.0000	28.0850
1676	opls_808	1	SiO	O0P	1	0.0000	15.9990
1677	opls_800	1	SiO	Si7	1	0.0000	28.0850
1678	opls_826	1	SiO	H0R	1	0.0000	1.0080
1679	opls_808	1	SiO	H0S	1	0.0000	1.0080
1680	opls_808	1	SiO	O11	1	0.0000	15.9990
1681	opls_800	1	SiO	Si0	1	0.0000	28.0850
1682	opls_809	1	SiO	O0X	1	-0.3274	15.9990
1683	opls_809	1	SiO	O11	1	0.0000	15.9990
1684	opls_808	1	SiO	O04	1	0.0000	15.9990
1685	opls_800	1	SiO	Si1	1	0.0000	28.0850
1686	opls_808	1	SiO	O05	1	0.0000	15.9990
1687	opls_808	1	SiO	O06	1	0.0000	15.9990
1688	opls_808	1	SiO	O08	1	0.0000	15.9990
1689	opls_800	1	SiO	Si2	1	0.0000	28.0850
1690	opls_809	1	SiO	O13	1	0.0000	15.9990
1691	opls_809	1	SiO	O14	1	0.0000	15.9990
1692	opls_808	1	SiO	O0C	1	0.0000	15.9990
1693	opls_800	1	SiO	Si3	1	0.0000	28.0850
1694	opls_808	1	SiO	O09	1	0.0000	15.9990
1695	opls_808	1	SiO	O0F	1	0.0000	15.9990
1696	opls_800	1	SiO	Si4	1	0.0000	28.0850
1697	opls_808	1	SiO	O0H	1	0.0000	15.9990
1698	opls_800	1	SiO	Si5	1	0.0000	28.0850
1699	opls_819	1	SiO	H0J	1	0.0000	1.0080
1700	opls_820	1	SiO	H0K	1	0.0000	1.0080
1701	opls_808	1	SiO	O10	1	0.0000	15.9990
1702	opls_808	1	SiO	O0N	1	0.0000	15.9990
1703	opls_800	1	SiO	Si6	1	0.0000	28.0850
1704	opls_808	1	SiO	O0P	1	0.0000	15.9990
1705	opls_800	1	SiO	Si7	1	0.0000	28.0850
1706	opls_826	1	SiO	H0R	1	0.0000	1.0080
1707	opls_808	1	SiO	H0S	1	0.0000	1.0080
1708	opls_808	1	SiO	O11	1	0.0000	15.9990
1709	opls_800	1	SiO	Si0	1	0.0000	28.0850
1710	opls_809	1	SiO	O0X	1	-0.3274	15.9990
1711	opls_809	1	SiO	O11	1	0.0000	15.9990
1712	opls_808	1	SiO	O04	1	0.0000	15.9990
1713	opls_800	1	SiO	Si1	1	0.0000	28.0850
1714	opls_808	1	SiO	O05	1	0.0000	15.9990
1715	opls_808	1	SiO	O06	1	0.0000	15.9990
1716	opls_808	1	SiO	O08	1	0.0000	15.9990
1717	opls_800	1	SiO	Si2	1	0.0000	28.0850
1718	opls_809	1	SiO	O13	1	0.0000	15.9990
1719	opls_809	1	SiO	O14	1	0.0000	15.9990
1720	opls_808	1	SiO	O0C	1	0.0000	15.9990
1721	opls_800	1	SiO	Si3	1	0.0000	28.0850
1722	opls_808	1	SiO	O09	1	0.0000	15.9990
1723	opls_808	1	SiO	O0F	1	0.0000	15.9990
1724	opls_800	1	SiO	Si4	1	0.0000	28.0850
1725	opls_808	1	SiO	O0H	1	0.0000	15.9990
1726	opls_800	1	SiO	Si5	1	0.0000	28.0850
1727	opls_819	1	SiO	H0J	1	0.0000	1.0080
1728	opls_820	1	SiO	H0K	1	0.0000	1.0080
1729	opls_808	1	SiO	O10	1	0.0000	15.9990
1730	opls_808	1	SiO	O0N	1	0.0000	15.9990
1731	opls_800	1	SiO	Si6	1	0.0000	28.0850
1732	opls_808	1	SiO	O0P	1	0.0000	15.9990
1733	opls_800	1	SiO	Si7	1	0.0000	28.0850
1734	opls_826	1	SiO	H0R	1	0.0000	1.0080
1735	opls_808	1	SiO	H0S	1	0.0000	1.0080
1736	opls_808	1	SiO	O11	1	0.0000	15.9990
1737	opls_800	1	SiO	Si0	1	0.0000	28.0850
1738	opls_809	1	SiO	O0X	1	-0.3274	15.9990
1739	opls_809	1	SiO	O11	1	0.0000	15.9990
1740	opls_808	1	SiO	O04	1	0.0000	15.9990
1741	opls_800	1	SiO	Si1	1	0.0000	28.0850
1742	opls_808	1	SiO	O05	1	0.0000	15.9990
1743	opls_808	1	SiO	O06	1	0.0000	15.9990
1744	opls_808	1	SiO	O08	1	0.0000	15.9990
1745	opls_800	1	SiO	Si2	1	0.0000	28.0850
1746	opls_809	1	SiO	O13	1	0.0000	15.9990
1747	opls_809	1	SiO	O14	1	0.0000	15.9990
1748	opls_808	1	SiO	O0C	1	0.0000	15.9990
1749	opls_800	1	SiO	Si3	1	0.0000	28.0850
1750	opls_808	1	SiO	O09	1	0.0000	15.9990
1751	opls_808	1	SiO	O0F	1	0.0000	15.9990
1752	opls_800	1	SiO	Si4	1	0.0000	28.0850
1753	opls_808	1	SiO	O0H	1	0.0000	15.9990
1754	opls_800	1	SiO	Si5	1	0.0000	28.0850
1755	opls_819	1	SiO	H0J	1	0.0000	1.0080
1756	opls_820	1	SiO	H0K	1	0.0000	1.0080
1757	opls_808	1	SiO	O10	1	0.0000	15.9990
1758	opls_808	1	SiO	O0N	1	0.0000	15.9990
1759	opls_800	1	SiO	Si6	1	0.0000	28.0850
1760	opls_808	1	SiO	O0P	1	0.0000	15.9990
1761	opls_800	1	SiO	Si7	1	0.0000	28.0850
1762	opls_826	1	SiO	H0R	1	0.0000	1.0080
1763	opls_808	1	SiO	H0S	1	0.0000	1.0080
1764	opls_808	1	SiO	O11	1	0.0000	15.9990
1765	opls_800	1	SiO	Si0	1	0.0000	28.0850
1766	opls_809	1	SiO	O0X	1	-0.3274	15.9990
1767	opls_809	1	SiO	O11	1	0.0000	15.9990
1768	opls_808	1	SiO	O04	1	0.0000	15.9990
1769	opls_800	1	SiO	Si1	1	0.0000	28.0850
1770	opls_808	1	SiO	O05	1	0.0000	15.9990
1771	opls_808	1	SiO	O06	1	0.0000	15.9990
1772	opls_808	1	SiO	O08	1	0.0000	15.9990
1773	opls_800	1	SiO	Si2	1	0.0000	28.0850
1774	opls_809	1	SiO	O13	1	0.0000	15.9990
1775	opls_809	1	SiO	O14	1	0.0000	15.9990
1776	opls_808	1	SiO	O0C	1	0.0000	15.9990
1777	opls_800	1	SiO	Si3	1	0.0000	28.0850
1778	opls_808	1	SiO	O09	1	0.0000	15.9990
1779	opls_808	1	SiO	O0F	1	0.0000	15.9990
1780	opls_800	1	SiO	Si4	1	0.0000	28.0850
1781	opls_808	1	SiO	O0H	1	0.0000	15.9990
1782	opls_800	1	SiO	Si5	1	0.0000	28.0850
1783	opls_819	1	SiO	H0J	1	0.0000	1.0080
1784	opls_820	1	SiO	H0K	1	0.0000	1.0080
1785	opls_808	1	SiO	O10	1	0.0000	15.9990
1786	opls_808	1	SiO	O0N	1	0.0000	15.9990
1787	opls_800	1	SiO	Si6	1	0.0000	28.0850
1788	opls_808	1	SiO	O0P	1	0.0000	15.9990
1789	opls_800	1	SiO	Si7	1	0.0000	28.0850
1790	opls_826	1	SiO	H0R	1	0.0000	1.0080
1791	opls_808	1	SiO	H0S	1	0.0000	1.0080
1792	opls_808	1	SiO	O11	1	0.0000	15.9990
1793	opls_806	1	SiO2	Ha8	1	0.0	1.008
1794	opls_806	1	SiO2	Ha8	1	0.0	1.008
1795	opls_806	1	SiO2	Ha8	1	0.0	1.008
1796	opls_806	1	SiO2	Ha8	1	0.0	1.008
1797	opls_806	1	SiO2	Ha8	1	0.0	1.008
1798	opls_806	1	SiO2	Ha8	1	0.0	1.008
1799	opls_806	1	SiO2	Ha8	1	0.0	1.008
1800	opls_806	1	SiO2	Ha8	1	0.0	1.008
1801	opls_806	1	SiO2	Ha8	1	0.0	1.008
1802	opls_806	1	SiO2	Ha8	1	0.0	1.008
1803	opls_806	1	SiO2	Ha8	1	0.0	1.008
1804	opls_806	1	SiO2	Ha8	1	0.0	1.008
1805	opls_806	1	SiO2	Ha8	1	0.0	1.008
1806	opls_806	1	SiO2	Ha8	1	0.0	1.008
1807	opls_806	1	SiO2	Ha8	1	0.0	1.008
1808	opls_806	1	SiO2	Ha8	1	0.0	1.008
1809	opls_806	1	SiO2	Ha8	1	0.0	1.008
1810	opls_806	1	SiO2	Ha8	1	0.0	1.008
1811	opls_806	1	SiO2	Ha8	1	0.0	1.008
1812	opls_806	1	SiO2	Ha8	1	0.0	1.008
1813	opls_806	1	SiO2	Ha8	1	0.0	1.008
1814	opls_806	1	SiO2	Ha8	1	0.0	1.008
1815	opls_806	1	SiO2	Ha8	1	0.0	1.008
1816	opls_806	1	SiO2	Ha8	1	0.0	1.008
1817	opls_806	1	SiO2	Ha8	1	0.0	1.008
1818	opls_806	1	SiO2	Ha8	1	0.0	1.008
1819	opls_806	1	SiO2	Ha8	1	0.0	1.008
1820	opls_806	1	SiO2	Ha8	1	0.0	1.008
1821	opls_806	1	SiO2	Ha8	1	0.0	1.008
1822	opls_806	1	SiO2	Ha8	1	0.0	1.008
1823	opls_806	1	SiO2	Ha8	1	0.0	1.008
1824	opls_806	1	SiO2	Ha8	1	0.0	1.008
1825	opls_806	1	SiO2	Ha8	1	0.0	1.008
1826	opls_806	1	SiO2	Ha8	1	0.0	1.008
1827	opls_806	1	SiO2	Ha8	1	0.0	1.008
1828	opls_806	1	SiO2	Ha8	1	0.0	1.008
1829	opls_806	1	SiO2	Ha8	1	0.0	1.008
1830	opls_806	1	SiO2	Ha8	1	0.0	1.008
1831	opls_806	1	SiO2	Ha8	1	0.0	1.008
1832	opls_806	1	SiO2	Ha8	1	0.0	1.008
1833	opls_806	1	SiO2	Ha8	1	0.0	1.008
1834	opls_806	1	SiO2	Ha8	1	0.0	1.008
1835	opls_806	1	SiO2	Ha8	1	0.0	1.008
1836	opls_806	1	SiO2	Ha8	1	0.0	1.008
1837	opls_806	1	SiO2	Ha8	1	0.0	1.008
1838	opls_806	1	SiO2	Ha8	1	0.0	1.008
1839	opls_806	1	SiO2	Ha8	1	0.0	1.008
1840	opls_806	1	SiO2	Ha8	1	0.0	1.008
1841	opls_806	1	SiO2	Ha8	1	0.0	1.008
1842	opls_806	1	SiO2	Ha8	1	0.0	1.008
1843	opls_806	1	SiO2	Ha8	1	0.0	1.008
1844	opls_806	1	SiO2	Ha8	1	0.0	1.008
1845	opls_806	1	SiO2	Ha8	1	0.0	1.008
1846	opls_806	1	SiO2	Ha8	1	0.0	1.008
1847	opls_806	1	SiO2	Ha8	1	0.0	1.008
1848	opls_806	1	SiO2	Ha8	1	0.0	1.008
1849	opls_806	1	SiO2	Ha8	1	0.0	1.008
1850	opls_806	1	SiO2	Ha8	1	0.0	1.008
1851	opls_806	1	SiO2	Ha8	1	0.0	1.008
1852	opls_806	1	SiO2	Ha8	1	0.0	1.008
1853	opls_806	1	SiO2	Ha8	1	0.0	1.008
1854	opls_806	1	SiO2	Ha8	1	0.0	1.008
1855	opls_806	1	SiO2	Ha8	1	0.0	1.008
1856	opls_806	1	SiO2	Ha8	1	0.0	1.008
1857	opls_806	1	SiO2	Ha8	1	0.0	1.008
1858	opls_806	1	SiO2	Ha8	1	0.0	1.008
1859	opls_806	1	SiO2	Ha8	1	0.0	1.008
1860	opls_806	1	SiO2	Ha8	1	0.0	1.008
1861	opls_806	1	SiO2	Ha8	1	0.0	1.008
1862	opls_806	1	SiO2	Ha8	1	0.0	1.008
1863	opls_806	1	SiO2	Ha8	1	0.0	1.008
1864	opls_806	1	SiO2	Ha8	1	0.0	1.008
1865	opls_806	1	SiO2	Ha8	1	0.0	1.008
1866	opls_806	1	SiO2	Ha8	1	0.0	1.008
1867	opls_806	1	SiO2	Ha8	1	0.0	1.008
1868	opls_806	1	SiO2	Ha8	1	0.0	1.008
1869	opls_806	1	SiO2	Ha8	1	0.0	1.008
1870	opls_806	1	SiO2	Ha8	1	0.0	1.008
1871	opls_806	1	SiO2	Ha8	1	0.0	1.008
1872	opls_806	1	SiO2	Ha8	1	0.0	1.008
1873	opls_806	1	SiO2	Ha8	1	0.0	1.008
1874	opls_806	1	SiO2	Ha8	1	0.0	1.008
1875	opls_806	1	SiO2	Ha8	1	0.0	1.008
1876	opls_806	1	SiO2	Ha8	1	0.0	1.008
1877	opls_806	1	SiO2	Ha8	1	0.0	1.008
1878	opls_806	1	SiO2	Ha8	1	0.0	1.008
1879	opls_806	1	SiO2	Ha8	1	0.0	1.008
1880	opls_806	1	SiO2	Ha8	1	0.0	1.008
1881	opls_806	1	SiO2	Ha8	1	0.0	1.008
1882	opls_806	1	SiO2	Ha8	1	0.0	1.008
1883	opls_806	1	SiO2	Ha8	1	0.0	1.008
1884	opls_806	1	SiO2	Ha8	1	0.0	1.008
1885	opls_806	1	SiO2	Ha8	1	0.0	1.008
1886	opls_806	1	SiO2	Ha8	1	0.0	1.008
1887	opls_806	1	SiO2	Ha8	1	0.0	1.008
1888	opls_806	1	SiO2	Ha8	1	0.0	1.008
1889	opls_806	1	SiO2	Ha8	1	0.0	1.008
1890	opls_806	1	SiO2	Ha8	1	0.0	1.008
1891	opls_806	1	SiO2	Ha8	1	0.0	1.008
1892	opls_806	1	SiO2	Ha8	1	0.0	1.008
1893	opls_806	1	SiO2	Ha8	1	0.0	1.008
1894	opls_806	1	SiO2	Ha8	1	0.0	1.008
1895	opls_806	1	SiO2	Ha8	1	0.0	1.008
1896	opls_806	1	SiO2	Ha8	1	0.0	1.008
1897	opls_806	1	SiO2	Ha8	1	0.0	1.008
1898	opls_806	1	SiO2	Ha8	1	0.0	1.008
1899	opls_806	1	SiO2	Ha8	1	0.0	1.008
1900	opls_806	1	SiO2	Ha8	1	0.0	1.008
1901	opls_806	1	SiO2	Ha8	1	0.0	1.008
1902	opls_806	1	SiO2	Ha8	1	0.0	1.008
1903	opls_806	1	SiO2	Ha8	1	0.0	1.008
1904	opls_806	1	SiO2	Ha8	1	0.0	1.008
1905	opls_806	1	SiO2	Ha8	1	0.0	1.008
1906	opls_806	1	SiO2	Ha8	1	0.0	1.008
1907	opls_806	1	SiO2	Ha8	1	0.0	1.008
1908	opls_806	1	SiO2	Ha8	1	0.0	1.008
1909	opls_806	1	SiO2	Ha8	1	0.0	1.008
1910	opls_806	1	SiO2	Ha8	1	0.0	1.008
1911	opls_806	1	SiO2	Ha8	1	0.0	1.008
1912	opls_806	1	SiO2	Ha8	1	0.0	1.008
1913	opls_806	1	SiO2	Ha8	1	0.0	1.008
1914	opls_806	1	SiO2	Ha8	1	0.0	1.008
1915	opls_806	1	SiO2	Ha8	1	0.0	1.008
1916	opls_806	1	SiO2	Ha8	1	0.0	1.008
1917	opls_806	1	SiO2	Ha8	1	0.0	1.008
1918	opls_806	1	SiO2	Ha8	1	0.0	1.008
1919	opls_806	1	SiO2	Ha8	1	0.0	1.008
1920	opls_806	1	SiO2	Ha8	1	0.0	1.008
1921	opls_806	1	SiO2	Ha8	1	0.0	1.008
1922	opls_806	1	SiO2	Ha8	1	0.0	1.008
1923	opls_806	1	SiO2	Ha8	1	0.0	1.008
1924	opls_806	1	SiO2	Ha8	1	0.0	1.008
1925	opls_806	1	SiO2	Ha8	1	0.0	1.008
1926	opls_806	1	SiO2	Ha8	1	0.0	1.008
1927	opls_806	1	SiO2	Ha8	1	0.0	1.008
1928	opls_806	1	SiO2	Ha8	1	0.0	1.008
1929	opls_806	1	SiO2	Ha8	1	0.0	1.008
1930	opls_806	1	SiO2	Ha8	1	0.0	1.008
1931	opls_806	1	SiO2	Ha8	1	0.0	1.008
1932	opls_806	1	SiO2	Ha8	1	0.0	1.008
1933	opls_806	1	SiO2	Ha8	1	0.0	1.008
1934	opls_806	1	SiO2	Ha8	1	0.0	1.008
1935	opls_806	1	SiO2	Ha8	1	0.0	1.008
1936	opls_806	1	SiO2	Ha8	1	0.0	1.008
1937	opls_806	1	SiO2	Ha8	1	0.0	1.008
1938	opls_806	1	SiO2	Ha8	1	0.0	1.008
1939	opls_806	1	SiO2	Ha8	1	0.0	1.008
1940	opls_806	1	SiO2	Ha8	1	0.0	1.008
1941	opls_806	1	SiO2	Ha8	1	0.0	1.008
1942	opls_806	1	SiO2	Ha8	1	0.0	1.008
1943	opls_806	1	SiO2	Ha8	1	0.0	1.008
1944	opls_806	1	SiO2	Ha8	1	0.0	1.008
1945	opls_806	1	SiO2	Ha8	1	0.0	1.008
1946	opls_806	1	SiO2	Ha8	1	0.0	1.008
1947	opls_806	1	SiO2	Ha8	1	0.0	1.008
1948	opls_806	1	SiO2	Ha8	1	0.0	1.008
1949	opls_806	1	SiO2	Ha8	1	0.0	1.008
1950	opls_806	1	SiO2	Ha8	1	0.0	1.008
1951	opls_806	1	SiO2	Ha8	1	0.0	1.008
1952	opls_806	1	SiO2	Ha8	1	0.0	1.008
1953	opls_806	1	SiO2	Ha8	1	0.0	1.008
1954	opls_806	1	SiO2	Ha8	1	0.0	1.008
1955	opls_806	1	SiO2	Ha8	1	0.0	1.008
1956	opls_806	1	SiO2	Ha8	1	0.0	1.008
1957	opls_806	1	SiO2	Ha8	1	0.0	1.008
1958	opls_806	1	SiO2	Ha8	1	0.0	1.008
1959	opls_806	1	SiO2	Ha8	1	0.0	1.008
1960	opls_806	1	SiO2	Ha8	1	0.0	1.008
1961	opls_806	1	SiO2	Ha8	1	0.0	1.008
1962	opls_806	1	SiO2	Ha8	1	0.0	1.008
1963	opls_806	1	SiO2	Ha8	1	0.0	1.008
1964	opls_806	1	SiO2	Ha8	1	0.0	1.008
1965	opls_806	1	SiO2	Ha8	1	0.0	1.008
1966	opls_806	1	SiO2	Ha8	1	0.0	1.008
1967	opls_806	1	SiO2	Ha8	1	0.0	1.008
1968	opls_806	1	SiO2	Ha8	1	0.0	1.008
1969	opls_806	1	SiO2	Ha8	1	0.0	1.008
1970	opls_806	1	SiO2	Ha8	1	0.0	1.008
1971	opls_806	1	SiO2	Ha8	1	0.0	1.008
1972	opls_806	1	SiO2	Ha8	1	0.0	1.008
1973	opls_806	1	SiO2	Ha8	1	0.0	1.008
1974	opls_806	1	SiO2	Ha8	1	0.0	1.008
1975	opls_806	1	SiO2	Ha8	1	0.0	1.008
1976	opls_806	1	SiO2	Ha8	1	0.0	1.008
1977	opls_806	1	SiO2	Ha8	1	0.0	1.008
1978	opls_806	1	SiO2	Ha8	1	0.0	1.008
1979	opls_806	1	SiO2	Ha8	1	0.0	1.008
1980	opls_806	1	SiO2	Ha8	1	0.0	1.008
1981	opls_806	1	SiO2	Ha8	1	0.0	1.008
1982	opls_806	1	SiO2	Ha8	1	0.0	1.008
1983	opls_806	1	SiO2	Ha8	1	0.0	1.008
1984	opls_806	1	SiO2	Ha8	1	0.0	1.008

[ bonds ]
2	1	1	0.1640	312963.200
3	1	1	0.1640	312963.200
4	1	1	0.1640	312963.200
5	4	1	0.1640	312963.200
6	5	1	0.1640	312963.200
7	5	1	0.1640	312963.200
8	5	1	0.1640	312963.200
9	8	1	0.1640	312963.200
10	9	1	0.1640	312963.200
11	9	1	0.1640	312963.200
12	9	1	0.1640	312963.200
13	12	1	0.1640	312963.200
14	13	1	0.1640	312963.200
15	13	1	0.1640	312963.200
16	15	1	0.1640	312963.200
17	16	1	0.1640	312963.200
18	17	1	0.1640	312963.200
19	18	1	0.1480	138908.800
20	18	1	0.1480	138908.800
21	18	1	0.1640	312963.200
22	13	1	0.1640	312963.200
23	22	1	0.1640	312963.200
24	23	1	0.1640	312963.200
25	24	1	0.1640	312963.200
26	25	1	0.1480	138908.800
27	25	1	0.1480	138908.800
28	25	1	0.1640	312963.200
30	29	1	0.1640	312963.200
31	29	1	0.1640	312963.200
32	29	1	0.1640	312963.200
33	32	1	0.1640	312963.200
34	33	1	0.1640	312963.200
35	33	1	0.1640	312963.200
36	33	1	0.1640	312963.200
37	36	1	0.1640	312963.200
38	37	1	0.1640	312963.200
39	37	1	0.1640	312963.200
40	37	1	0.1640	312963.200
41	40	1	0.1640	312963.200
42	41	1	0.1640	312963.200
43	41	1	0.1640	312963.200
44	43	1	0.1640	312963.200
45	44	1	0.1640	312963.200
46	45	1	0.1640	312963.200
47	46	1	0.1480	138908.800
48	46	1	0.1480	138908.800
49	46	1	0.1640	312963.200
50	41	1	0.1640	312963.200
51	50	1	0.1640	312963.200
52	51	1	0.1640	312963.200
53	52	1	0.1640	312963.200
54	53	1	0.1480	138908.800
55	53	1	0.1480	138908.800
56	53	1	0.1640	312963.200
58	57	1	0.1640	312963.200
59	57	1	0.1640	312963.200
60	57	1	0.1640	312963.200
61	60	1	0.1640	312963.200
62	61	1	0.1640	312963.200
63	61	1	0.1640	312963.200
64	61	1	0.1640	312963.200
65	64	1	0.1640	312963.200
66	65	1	0.1640	312963.200
67	65	1	0.1640	312963.200
68	65	1	0.1640	312963.200
69	68	1	0.1640	312963.200
70	69	1	0.1640	312963.200
71	69	1	0.1640	312963.200
72	71	1	0.1640	312963.200
73	72	1	0.1640	312963.200
74	73	1	0.1640	312963.200
75	74	1	0.1480	138908.800
76	74	1	0.1480	138908.800
77	74	1	0.1640	312963.200
78	69	1	0.1640	312963.200
79	78	1	0.1640	312963.200
80	79	1	0.1640	312963.200
81	80	1	0.1640	312963.200
82	81	1	0.1480	138908.800
83	81	1	0.1480	138908.800
84	81	1	0.1640	312963.200
86	85	1	0.1640	312963.200
87	85	1	0.1640	312963.200
88	85	1	0.1640	312963.200
89	88	1	0.1640	312963.200
90	89	1	0.1640	312963.200
91	89	1	0.1640	312963.200
92	89	1	0.1640	312963.200
93	92	1	0.1640	312963.200
94	93	1	0.1640	312963.200
95	93	1	0.1640	312963.200
96	93	1	0.1640	312963.200
97	96	1	0.1640	312963.200
98	97	1	0.1640	312963.200
99	97	1	0.1640	312963.200
100	99	1	0.1640	312963.200
101	100	1	0.1640	312963.200
102	101	1	0.1640	312963.200
103	102	1	0.1480	138908.800
104	102	1	0.1480	138908.800
105	102	1	0.1640	312963.200
106	97	1	0.1640	312963.200
107	106	1	0.1640	312963.200
108	107	1	0.1640	312963.200
109	108	1	0.1640	312963.200
110	109	1	0.1480	138908.800
111	109	1	0.1480	138908.800
112	109	1	0.1640	312963.200
114	113	1	0.1640	312963.200
115	113	1	0.1640	312963.200
116	113	1	0.1640	312963.200
117	116	1	0.1640	312963.200
118	117	1	0.1640	312963.200
119	117	1	0.1640	312963.200
120	117	1	0.1640	312963.200
121	120	1	0.1640	312963.200
122	121	1	0.1640	312963.200
123	121	1	0.1640	312963.200
124	121	1	0.1640	312963.200
125	124	1	0.1640	312963.200
126	125	1	0.1640	312963.200
127	125	1	0.1640	312963.200
128	127	1	0.1640	312963.200
129	128	1	0.1640	312963.200
130	129	1	0.1640	312963.200
131	130	1	0.1480	138908.800
132	130	1	0.1480	138908.800
133	130	1	0.1640	312963.200
134	125	1	0.1640	312963.200
135	134	1	0.1640	312963.200
136	135	1	0.1640	312963.200
137	136	1	0.1640	312963.200
138	137	1	0.1480	138908.800
139	137	1	0.1480	138908.800
140	137	1	0.1640	312963.200
142	141	1	0.1640	312963.200
143	141	1	0.1640	312963.200
144	141	1	0.1640	312963.200
145	144	1	0.1640	312963.200
146	145	1	0.1640	312963.200
147	145	1	0.1640	312963.200
148	145	1	0.1640	312963.200
149	148	1	0.1640	312963.200
150	149	1	0.1640	312963.200
151	149	1	0.1640	312963.200
152	149	1	0.1640	312963.200
153	152	1	0.1640	312963.200
154	153	1	0.1640	312963.200
155	153	1	0.1640	312963.200
156	155	1	0.1640	312963.200
157	156	1	0.1640	312963.200
158	157	1	0.1640	312963.200
159	158	1	0.1480	138908.800
160	158	1	0.1480	138908.800
161	158	1	0.1640	312963.200
162	153	1	0.1640	312963.200
163	162	1	0.1640	312963.200
164	163	1	0.1640	312963.200
165	164	1	0.1640	312963.200
166	165	1	0.1480	138908.800
167	165	1	0.1480	138908.800
168	165	1	0.1640	312963.200
170	169	1	0.1640	312963.200
171	169	1	0.1640	312963.200
172	169	1	0.1640	312963.200
173	172	1	0.1640	312963.200
174	173	1	0.1640	312963.200
175	173	1	0.1640	312963.200
176	173	1	0.1640	312963.200
177	176	1	0.1640	312963.200
178	177	1	0.1640	312963.200
179	177	1	0.1640	312963.200
180	177	1	0.1640	312963.200
181	180	1	0.1640	312963.200
182	181	1	0.1640	312963.200
183	181	1	0.1640	312963.200
184	183	1	0.1640	312963.200
185	184	1	0.1640	312963.200
186	185	1	0.1640	312963.200
187	186	1	0.1480	138908.800
188	186	1	0.1480	138908.800
189	186	1	0.1640	312963.200
190	181	1	0.1640	312963.200
191	190	1	0.1640	312963.200
192	191	1	0.1640	312963.200
193	192	1	0.1640	312963.200
194	193	1	0.1480	138908.800
195	193	1	0.1480	138908.800
196	193	1	0.1640	312963.200
198	197	1	0.1640	312963.200
199	197	1	0.1640	312963.200
200	197	1	0.1640	312963.200
201	200	1	0.1640	312963.200
202	201	1	0.1640	312963.200
203	201	1	0.1640	312963.200
204	201	1	0.1640	312963.200
205	204	1	0.1640	312963.200
206	205	1	0.1640	312963.200
207	205	1	0.1640	312963.200
208	205	1	0.1640	312963.200
209	208	1	0.1640	312963.200
210	209	1	0.1640	312963.200
211	209	1	0.1640	312963.200
212	211	1	0.1640	312963.200
213	212	1	0.1640	312963.200
214	213	1	0.1640	312963.200
215	214	1	0.1480	138908.800
216	214	1	0.1480	138908.800
217	214	1	0.1640	312963.200
218	209	1	0.1640	312963.200
219	218	1	0.1640	312963.200
220	219	1	0.1640	312963.200
221	220	1	0.1640	312963.200
222	221	1	0.1480	138908.800
223	221	1	0.1480	138908.800
224	221	1	0.1640	312963.200
226	225	1	0.1640	312963.200
227	225	1	0.1640	312963.200
228	225	1	0.1640	312963.200
229	228	1	0.1640	312963.200
230	229	1	0.1640	312963.200
231	229	1	0.1640	312963.200
232	229	1	0.1640	312963.200
233	232	1	0.1640	312963.200
234	233	1	0.1640	312963.200
235	233	1	0.1640	312963.200
236	233	1	0.1640	312963.200
237	236	1	0.1640	312963.200
238	237	1	0.1640	312963.200
239	237	1	0.1640	312963.200
240	239	1	0.1640	312963.200
241	240	1	0.1640	312963.200
242	241	1	0.1640	312963.200
243	242	1	0.1480	138908.800
244	242	1	0.1480	138908.800
245	242	1	0.1640	312963.200
246	237	1	0.1640	312963.200
247	246	1	0.1640	312963.200
248	247	1	0.1640	312963.200
249	248	1	0.1640	312963.200
250	249	1	0.1480	138908.800
251	249	1	0.1480	138908.800
252	249	1	0.1640	312963.200
254	253	1	0.1640	312963.200
255	253	1	0.1640	312963.200
256	253	1	0.1640	312963.200
257	256	1	0.1640	312963.200
258	257	1	0.1640	312963.200
259	257	1	0.1640	312963.200
260	257	1	0.1640	312963.200
261	260	1	0.1640	312963.200
262	261	1	0.1640	312963.200
263	261	1	0.1640	312963.200
264	261	1	0.1640	312963.200
265	264	1	0.1640	312963.200
266	265	1	0.1640	312963.200
267	265	1	0.1640	312963.200
268	267	1	0.1640	312963.200
269	268	1	0.1640	312963.200
270	269	1	0.1640	312963.200
271	270	1	0.1480	138908.800
272	270	1	0.1480	138908.800
273	270	1	0.1640	312963.200
274	265	1	0.1640	312963.200
275	274	1	0.1640	312963.200
276	275	1	0.1640	312963.200
277	276	1	0.1640	312963.200
278	277	1	0.1480	138908.800
279	277	1	0.1480	138908.800
280	277	1	0.1640	312963.200
282	281	1	0.1640	312963.200
283	281	1	0.1640	312963.200
284	281	1	0.1640	312963.200
285	284	1	0.1640	312963.200
286	285	1	0.1640	312963.200
287	285	1	0.1640	312963.200
288	285	1	0.1640	312963.200
289	288	1	0.1640	312963.200
290	289	1	0.1640	312963.200
291	289	1	0.1640	312963.200
292	289	1	0.1640	312963.200
293	292	1	0.1640	312963.200
294	293	1	0.1640	312963.200
295	293	1	0.1640	312963.200
296	295	1	0.1640	312963.200
297	296	1	0.1640	312963.200
298	297	1	0.1640	312963.200
299	298	1	0.1480	138908.800
300	298	1	0.1480	138908.800
301	298	1	0.1640	312963.200
302	293	1	0.1640	312963.200
303	302	1	0.1640	312963.200
304	303	1	0.1640	312963.200
305	304	1	0.1640	312963.200
306	305	1	0.1480	138908.800
307	305	1	0.1480	138908.800
308	305	1	0.1640	312963.200
310	309	1	0.1640	312963.200
311	309	1	0.1640	312963.200
312	309	1	0.1640	312963.200
313	312	1	0.1640	312963.200
314	313	1	0.1640	312963.200
315	313	1	0.1640	312963.200
316	313	1	0.1640	312963.200
317	316	1	0.1640	312963.200
318	317	1	0.1640	312963.200
319	317	1	0.1640	312963.200
320	317	1	0.1640	312963.200
321	320	1	0.1640	312963.200
322	321	1	0.1640	312963.200
323	321	1	0.1640	312963.200
324	323	1	0.1640	312963.200
325	324	1	0.1640	312963.200
326	325	1	0.1640	312963.200
327	326	1	0.1480	138908.800
328	326	1	0.1480	138908.800
329	326	1	0.1640	312963.200
330	321	1	0.1640	312963.200
331	330	1	0.1640	312963.200
332	331	1	0.1640	312963.200
333	332	1	0.1640	312963.200
334	333	1	0.1480	138908.800
335	333	1	0.1480	138908.800
336	333	1	0.1640	312963.200
338	337	1	0.1640	312963.200
339	337	1	0.1640	312963.200
340	337	1	0.1640	312963.200
341	340	1	0.1640	312963.200
342	341	1	0.1640	312963.200
343	341	1	0.1640	312963.200
344	341	1	0.1640	312963.200
345	344	1	0.1640	312963.200
346	345	1	0.1640	312963.200
347	345	1	0.1640	312963.200
348	345	1	0.1640	312963.200
349	348	1	0.1640	312963.200
350	349	1	0.1640	312963.200
351	349	1	0.1640	312963.200
352	351	1	0.1640	312963.200
353	352	1	0.1640	312963.200
354	353	1	0.1640	312963.200
355	354	1	0.1480	138908.800
356	354	1	0.1480	138908.800
357	354	1	0.1640	312963.200
358	349	1	0.1640	312963.200
359	358	1	0.1640	312963.200
360	359	1	0.1640	312963.200
361	360	1	0.1640	312963.200
362	361	1	0.1480	138908.800
363	361	1	0.1480	138908.800
364	361	1	0.1640	312963.200
366	365	1	0.1640	312963.200
367	365	1	0.1640	312963.200
368	365	1	0.1640	312963.200
369	368	1	0.1640	312963.200
370	369	1	0.1640	312963.200
371	369	1	0.1640	312963.200
372	369	1	0.1640	312963.200
373	372	1	0.1640	312963.200
374	373	1	0.1640	312963.200
375	373	1	0.1640	312963.200
376	373	1	0.1640	312963.200
377	376	1	0.1640	312963.200
378	377	1	0.1640	312963.200
379	377	1	0.1640	312963.200
380	379	1	0.1640	312963.200
381	380	1	0.1640	312963.200
382	381	1	0.1640	312963.200
383	382	1	0.1480	138908.800
384	382	1	0.1480	138908.800
385	382	1	0.1640	312963.200
386	377	1	0.1640	312963.200
387	386	1	0.1640	312963.200
388	387	1	0.1640	312963.200
389	388	1	0.1640	312963.200
390	389	1	0.1480	138908.800
391	389	1	0.1480	138908.800
392	389	1	0.1640	312963.200
394	393	1	0.1640	312963.200
395	393	1	0.1640	312963.200
396	393	1	0.1640	312963.200
397	396	1	0.1640	312963.200
398	397	1	0.1640	312963.200
399	397	1	0.1640	312963.200
400	397	1	0.1640	312963.200
401	400	1	0.1640	312963.200
402	401	1	0.1640	312963.200
403	401	1	0.1640	312963.200
404	401	1	0.1640	312963.200
405	404	1	0.1640	312963.200
406	405	1	0.1640	312963.200
407	405	1	0.1640	312963.200
408	407	1	0.1640	312963.200
409	408	1	0.1640	312963.200
410	409	1	0.1640	312963.200
411	410	1	0.1480	138908.800
412	410	1	0.1480	138908.800
413	410	1	0.1640	312963.200
414	405	1	0.1640	312963.200
415	414	1	0.1640	312963.200
416	415	1	0.1640	312963.200
417	416	1	0.1640	312963.200
418	417	1	0.1480	138908.800
419	417	1	0.1480	138908.800
420	417	1	0.1640	312963.200
422	421	1	0.1640	312963.200
423	421	1	0.1640	312963.200
424	421	1	0.1640	312963.200
425	424	1	0.1640	312963.200
426	425	1	0.1640	312963.200
427	425	1	0.1640	312963.200
428	425	1	0.1640	312963.200
429	428	1	0.1640	312963.200
430	429	1	0.1640	312963.200
431	429	1	0.1640	312963.200
432	429	1	0.1640	312963.200
433	432	1	0.1640	312963.200
434	433	1	0.1640	312963.200
435	433	1	0.1640	312963.200
436	435	1	0.1640	312963.200
437	436	1	0.1640	312963.200
438	437	1	0.1640	312963.200
439	438	1	0.1480	138908.800
440	438	1	0.1480	138908.800
441	438	1	0.1640	312963.200
442	433	1	0.1640	312963.200
443	442	1	0.1640	312963.200
444	443	1	0.1640	312963.200
445	444	1	0.1640	312963.200
446	445	1	0.1480	138908.800
447	445	1	0.1480	138908.800
448	445	1	0.1640	312963.200
450	449	1	0.1640	312963.200
451	449	1	0.1640	312963.200
452	449	1	0.1640	312963.200
453	452	1	0.1640	312963.200
454	453	1	0.1640	312963.200
455	453	1	0.1640	312963.200
456	453	1	0.1640	312963.200
457	456	1	0.1640	312963.200
458	457	1	0.1640	312963.200
459	457	1	0.1640	312963.200
460	457	1	0.1640	312963.200
461	460	1	0.1640	312963.200
462	461	1	0.1640	312963.200
463	461	1	0.1640	312963.200
464	463	1	0.1640	312963.200
465	464	1	0.1640	312963.200
466	465	1	0.1640	312963.200
467	466	1	0.1480	138908.800
468	466	1	0.1480	138908.800
469	466	1	0.1640	312963.200
470	461	1	0.1640	312963.200
471	470	1	0.1640	312963.200
472	471	1	0.1640	312963.200
473	472	1	0.1640	312963.200
474	473	1	0.1480	138908.800
475	473	1	0.1480	138908.800
476	473	1	0.1640	312963.200
478	477	1	0.1640	312963.200
479	477	1	0.1640	312963.200
480	477	1	0.1640	312963.200
481	480	1	0.1640	312963.200
482	481	1	0.1640	312963.200
483	481	1	0.1640	312963.200
484	481	1	0.1640	312963.200
485	484	1	0.1640	312963.200
486	485	1	0.1640	312963.200
487	485	1	0.1640	312963.200
488	485	1	0.1640	312963.200
489	488	1	0.1640	312963.200
490	489	1	0.1640	312963.200
491	489	1	0.1640	312963.200
492	491	1	0.1640	312963.200
493	492	1	0.1640	312963.200
494	493	1	0.1640	312963.200
495	494	1	0.1480	138908.800
496	494	1	0.1480	138908.800
497	494	1	0.1640	312963.200
498	489	1	0.1640	312963.200
499	498	1	0.1640	312963.200
500	499	1	0.1640	312963.200
501	500	1	0.1640	312963.200
502	501	1	0.1480	138908.800
503	501	1	0.1480	138908.800
504	501	1	0.1640	312963.200
506	505	1	0.1640	312963.200
507	505	1	0.1640	312963.200
508	505	1	0.1640	312963.200
509	508	1	0.1640	312963.200
510	509	1	0.1640	312963.200
511	509	1	0.1640	312963.200
512	509	1	0.1640	312963.200
513	512	1	0.1640	312963.200
514	513	1	0.1640	312963.200
515	513	1	0.1640	312963.200
516	513	1	0.1640	312963.200
517	516	1	0.1640	312963.200
518	517	1	0.1640	312963.200
519	517	1	0.1640	312963.200
520	519	1	0.1640	312963.200
521	520	1	0.1640	312963.200
522	521	1	0.1640	312963.200
523	522	1	0.1480	138908.800
524	522	1	0.1480	138908.800
525	522	1	0.1640	312963.200
526	517	1	0.1640	312963.200
527	526	1	0.1640	312963.200
528	527	1	0.1640	312963.200
529	528	1	0.1640	312963.200
530	529	1	0.1480	138908.800
531	529	1	0.1480	138908.800
532	529	1	0.1640	312963.200
534	533	1	0.1640	312963.200
535	533	1	0.1640	312963.200
536	533	1	0.1640	312963.200
537	536	1	0.1640	312963.200
538	537	1	0.1640	312963.200
539	537	1	0.1640	312963.200
540	537	1	0.1640	312963.200
541	540	1	0.1640	312963.200
542	541	1	0.1640	312963.200
543	541	1	0.1640	312963.200
544	541	1	0.1640	312963.200
545	544	1	0.1640	312963.200
546	545	1	0.1640	312963.200
547	545	1	0.1640	312963.200
548	547	1	0.1640	312963.200
549	548	1	0.1640	312963.200
550	549	1	0.1640	312963.200
551	550	1	0.1480	138908.800
552	550	1	0.1480	138908.800
553	550	1	0.1640	312963.200
554	545	1	0.1640	312963.200
555	554	1	0.1640	312963.200
556	555	1	0.1640	312963.200
557	556	1	0.1640	312963.200
558	557	1	0.1480	138908.800
559	557	1	0.1480	138908.800
560	557	1	0.1640	312963.200
562	561	1	0.1640	312963.200
563	561	1	0.1640	312963.200
564	561	1	0.1640	312963.200
565	564	1	0.1640	312963.200
566	565	1	0.1640	312963.200
567	565	1	0.1640	312963.200
568	565	1	0.1640	312963.200
569	568	1	0.1640	312963.200
570	569	1	0.1640	312963.200
571	569	1	0.1640	312963.200
572	569	1	0.1640	312963.200
573	572	1	0.1640	312963.200
574	573	1	0.1640	312963.200
575	573	1	0.1640	312963.200
576	575	1	0.1640	312963.200
577	576	1	0.1640	312963.200
578	577	1	0.1640	312963.200
579	578	1	0.1480	138908.800
580	578	1	0.1480	138908.800
581	578	1	0.1640	312963.200
582	573	1	0.1640	312963.200
583	582	1	0.1640	312963.200
584	583	1	0.1640	312963.200
585	584	1	0.1640	312963.200
586	585	1	0.1480	138908.800
587	585	1	0.1480	138908.800
588	585	1	0.1640	312963.200
590	589	1	0.1640	312963.200
591	589	1	0.1640	312963.200
592	589	1	0.1640	312963.200
593	592	1	0.1640	312963.200
594	593	1	0.1640	312963.200
595	593	1	0.1640	312963.200
596	593	1	0.1640	312963.200
597	596	1	0.1640	312963.200
598	597	1	0.1640	312963.200
599	597	1	0.1640	312963.200
600	597	1	0.1640	312963.200
601	600	1	0.1640	312963.200
602	601	1	0.1640	312963.200
603	601	1	0.1640	312963.200
604	603	1	0.1640	312963.200
605	604	1	0.1640	312963.200
606	605	1	0.1640	312963.200
607	606	1	0.1480	138908.800
608	606	1	0.1480	138908.800
609	606	1	0.1640	312963.200
610	601	1	0.1640	312963.200
611	610	1	0.1640	312963.200
612	611	1	0.1640	312963.200
613	612	1	0.1640	312963.200
614	613	1	0.1480	138908.800
615	613	1	0.1480	138908.800
616	613	1	0.1640	312963.200
618	617	1	0.1640	312963.200
619	617	1	0.1640	312963.200
620	617	1	0.1640	312963.200
621	620	1	0.1640	312963.200
622	621	1	0.1640	312963.200
623	621	1	0.1640	312963.200
624	621	1	0.1640	312963.200
625	624	1	0.1640	312963.200
626	625	1	0.1640	312963.200
627	625	1	0.1640	312963.200
628	625	1	0.1640	312963.200
629	628	1	0.1640	312963.200
630	629	1	0.1640	312963.200
631	629	1	0.1640	312963.200
632	631	1	0.1640	312963.200
633	632	1	0.1640	312963.200
634	633	1	0.1640	312963.200
635	634	1	0.1480	138908.800
636	634	1	0.1480	138908.800
637	634	1	0.1640	312963.200
638	629	1	0.1640	312963.200
639	638	1	0.1640	312963.200
640	639	1	0.1640	312963.200
641	640	1	0.1640	312963.200
642	641	1	0.1480	138908.800
643	641	1	0.1480	138908.800
644	641	1	0.1640	312963.200
646	645	1	0.1640	312963.200
647	645	1	0.1640	312963.200
648	645	1	0.1640	312963.200
649	648	1	0.1640	312963.200
650	649	1	0.1640	312963.200
651	649	1	0.1640	312963.200
652	649	1	0.1640	312963.200
653	652	1	0.1640	312963.200
654	653	1	0.1640	312963.200
655	653	1	0.1640	312963.200
656	653	1	0.1640	312963.200
657	656	1	0.1640	312963.200
658	657	1	0.1640	312963.200
659	657	1	0.1640	312963.200
660	659	1	0.1640	312963.200
661	660	1	0.1640	312963.200
662	661	1	0.1640	312963.200
663	662	1	0.1480	138908.800
664	662	1	0.1480	138908.800
665	662	1	0.1640	312963.200
666	657	1	0.1640	312963.200
667	666	1	0.1640	312963.200
668	667	1	0.1640	312963.200
669	668	1	0.1640	312963.200
670	669	1	0.1480	138908.800
671	669	1	0.1480	138908.800
672	669	1	0.1640	312963.200
674	673	1	0.1640	312963.200
675	673	1	0.1640	312963.200
676	673	1	0.1640	312963.200
677	676	1	0.1640	312963.200
678	677	1	0.1640	312963.200
679	677	1	0.1640	312963.200
680	677	1	0.1640	312963.200
681	680	1	0.1640	312963.200
682	681	1	0.1640	312963.200
683	681	1	0.1640	312963.200
684	681	1	0.1640	312963.200
685	684	1	0.1640	312963.200
686	685	1	0.1640	312963.200
687	685	1	0.1640	312963.200
688	687	1	0.1640	312963.200
689	688	1	0.1640	312963.200
690	689	1	0.1640	312963.200
691	690	1	0.1480	138908.800
692	690	1	0.1480	138908.800
693	690	1	0.1640	312963.200
694	685	1	0.1640	312963.200
695	694	1	0.1640	312963.200
696	695	1	0.1640	312963.200
697	696	1	0.1640	312963.200
698	697	1	0.1480	138908.800
699	697	1	0.1480	138908.800
700	697	1	0.1640	312963.200
702	701	1	0.1640	312963.200
703	701	1	0.1640	312963.200
704	701	1	0.1640	312963.200
705	704	1	0.1640	312963.200
706	705	1	0.1640	312963.200
707	705	1	0.1640	312963.200
708	705	1	0.1640	312963.200
709	708	1	0.1640	312963.200
710	709	1	0.1640	312963.200
711	709	1	0.1640	312963.200
712	709	1	0.1640	312963.200
713	712	1	0.1640	312963.200
714	713	1	0.1640	312963.200
715	713	1	0.1640	312963.200
716	715	1	0.1640	312963.200
717	716	1	0.1640	312963.200
718	717	1	0.1640	312963.200
719	718	1	0.1480	138908.800
720	718	1	0.1480	138908.800
721	718	1	0.1640	312963.200
722	713	1	0.1640	312963.200
723	722	1	0.1640	312963.200
724	723	1	0.1640	312963.200
725	724	1	0.1640	312963.200
726	725	1	0.1480	138908.800
727	725	1	0.1480	138908.800
728	725	1	0.1640	312963.200
730	729	1	0.1640	312963.200
731	729	1	0.1640	312963.200
732	729	1	0.1640	312963.200
733	732	1	0.1640	312963.200
734	733	1	0.1640	312963.200
735	733	1	0.1640	312963.200
736	733	1	0.1640	312963.200
737	736	1	0.1640	312963.200
738	737	1	0.1640	312963.200
739	737	1	0.1640	312963.200
740	737	1	0.1640	312963.200
741	740	1	0.1640	312963.200
742	741	1	0.1640	312963.200
743	741	1	0.1640	312963.200
744	743	1	0.1640	312963.200
745	744	1	0.1640	312963.200
746	745	1	0.1640	312963.200
747	746	1	0.1480	138908.800
748	746	1	0.1480	138908.800
749	746	1	0.1640	312963.200
750	741	1	0.1640	312963.200
751	750	1	0.1640	312963.200
752	751	1	0.1640	312963.200
753	752	1	0.1640	312963.200
754	753	1	0.1480	138908.800
755	753	1	0.1480	138908.800
756	753	1	0.1640	312963.200
758	757	1	0.1640	312963.200
759	757	1	0.1640	312963.200
760	757	1	0.1640	312963.200
761	760	1	0.1640	312963.200
762	761	1	0.1640	312963.200
763	761	1	0.1640	312963.200
764	761	1	0.1640	312963.200
765	764	1	0.1640	312963.200
766	765	1	0.1640	312963.200
767	765	1	0.1640	312963.200
768	765	1	0.1640	312963.200
769	768	1	0.1640	312963.200
770	769	1	0.1640	312963.200
771	769	1	0.1640	312963.200
772	771	1	0.1640	312963.200
773	772	1	0.1640	312963.200
774	773	1	0.1640	312963.200
775	774	1	0.1480	138908.800
776	774	1	0.1480	138908.800
777	774	1	0.1640	312963.200
778	769	1	0.1640	312963.200
779	778	1	0.1640	312963.200
780	779	1	0.1640	312963.200
781	780	1	0.1640	312963.200
782	781	1	0.1480	138908.800
783	781	1	0.1480	138908.800
784	781	1	0.1640	312963.200
786	785	1	0.1640	312963.200
787	785	1	0.1640	312963.200
788	785	1	0.1640	312963.200
789	788	1	0.1640	312963.200
790	789	1	0.1640	312963.200
791	789	1	0.1640	312963.200
792	789	1	0.1640	312963.200
793	792	1	0.1640	312963.200
794	793	1	0.1640	312963.200
795	793	1	0.1640	312963.200
796	793	1	0.1640	312963.200
797	796	1	0.1640	312963.200
798	797	1	0.1640	312963.200
799	797	1	0.1640	312963.200
800	799	1	0.1640	312963.200
801	800	1	0.1640	312963.200
802	801	1	0.1640	312963.200
803	802	1	0.1480	138908.800
804	802	1	0.1480	138908.800
805	802	1	0.1640	312963.200
806	797	1	0.1640	312963.200
807	806	1	0.1640	312963.200
808	807	1	0.1640	312963.200
809	808	1	0.1640	312963.200
810	809	1	0.1480	138908.800
811	809	1	0.1480	138908.800
812	809	1	0.1640	312963.200
814	813	1	0.1640	312963.200
815	813	1	0.1640	312963.200
816	813	1	0.1640	312963.200
817	816	1	0.1640	312963.200
818	817	1	0.1640	312963.200
819	817	1	0.1640	312963.200
820	817	1	0.1640	312963.200
821	820	1	0.1640	312963.200
822	821	1	0.1640	312963.200
823	821	1	0.1640	312963.200
824	821	1	0.1640	312963.200
825	824	1	0.1640	312963.200
826	825	1	0.1640	312963.200
827	825	1	0.1640	312963.200
828	827	1	0.1640	312963.200
829	828	1	0.1640	312963.200
830	829	1	0.1640	312963.200
831	830	1	0.1480	138908.800
832	830	1	0.1480	138908.800
833	830	1	0.1640	312963.200
834	825	1	0.1640	312963.200
835	834	1	0.1640	312963.200
836	835	1	0.1640	312963.200
837	836	1	0.1640	312963.200
838	837	1	0.1480	138908.800
839	837	1	0.1480	138908.800
840	837	1	0.1640	312963.200
842	841	1	0.1640	312963.200
843	841	1	0.1640	312963.200
844	841	1	0.1640	312963.200
845	844	1	0.1640	312963.200
846	845	1	0.1640	312963.200
847	845	1	0.1640	312963.200
848	845	1	0.1640	312963.200
849	848	1	0.1640	312963.200
850	849	1	0.1640	312963.200
851	849	1	0.1640	312963.200
852	849	1	0.1640	312963.200
853	852	1	0.1640	312963.200
854	853	1	0.1640	312963.200
855	853	1	0.1640	312963.200
856	855	1	0.1640	312963.200
857	856	1	0.1640	312963.200
858	857	1	0.1640	312963.200
859	858	1	0.1480	138908.800
860	858	1	0.1480	138908.800
861	858	1	0.1640	312963.200
862	853	1	0.1640	312963.200
863	862	1	0.1640	312963.200
864	863	1	0.1640	312963.200
865	864	1	0.1640	312963.200
866	865	1	0.1480	138908.800
867	865	1	0.1480	138908.800
868	865	1	0.1640	312963.200
870	869	1	0.1640	312963.200
871	869	1	0.1640	312963.200
872	869	1	0.1640	312963.200
873	872	1	0.1640	312963.200
874	873	1	0.1640	312963.200
875	873	1	0.1640	312963.200
876	873	1	0.1640	312963.200
877	876	1	0.1640	312963.200
878	877	1	0.1640	312963.200
879	877	1	0.1640	312963.200
880	877	1	0.1640	312963.200
881	880	1	0.1640	312963.200
882	881	1	0.1640	312963.200
883	881	1	0.1640	312963.200
884	883	1	0.1640	312963.200
885	884	1	0.1640	312963.200
886	885	1	0.1640	312963.200
887	886	1	0.1480	138908.800
888	886	1	0.1480	138908.800
889	886	1	0.1640	312963.200
890	881	1	0.1640	312963.200
891	890	1	0.1640	312963.200
892	891	1	0.1640	312963.200
893	892	1	0.1640	312963.200
894	893	1	0.1480	138908.800
895	893	1	0.1480	138908.800
896	893	1	0.1640	312963.200
898	897	1	0.1640	312963.200
899	897	1	0.1640	312963.200
900	897	1	0.1640	312963.200
901	900	1	0.1640	312963.200
902	901	1	0.1640	312963.200
903	901	1	0.1640	312963.200
904	901	1	0.1640	312963.200
905	904	1	0.1640	312963.200
906	905	1	0.1640	312963.200
907	905	1	0.1640	312963.200
908	905	1	0.1640	312963.200
909	908	1	0.1640	312963.200
910	909	1	0.1640	312963.200
911	909	1	0.1640	312963.200
912	911	1	0.1640	312963.200
913	912	1	0.1640	312963.200
914	913	1	0.1640	312963.200
915	914	1	0.1480	138908.800
916	914	1	0.1480	138908.800
917	914	1	0.1640	312963.200
918	909	1	0.1640	312963.200
919	918	1	0.1640	312963.200
920	919	1	0.1640	312963.200
921	920	1	0.1640	312963.200
922	921	1	0.1480	138908.800
923	921	1	0.1480	138908.800
924	921	1	0.1640	312963.200
926	925	1	0.1640	312963.200
927	925	1	0.1640	312963.200
928	925	1	0.1640	312963.200
929	928	1	0.1640	312963.200
930	929	1	0.1640	312963.200
931	929	1	0.1640	312963.200
932	929	1	0.1640	312963.200
933	932	1	0.1640	312963.200
934	933	1	0.1640	312963.200
935	933	1	0.1640	312963.200
936	933	1	0.1640	312963.200
937	936	1	0.1640	312963.200
938	937	1	0.1640	312963.200
939	937	1	0.1640	312963.200
940	939	1	0.1640	312963.200
941	940	1	0.1640	312963.200
942	941	1	0.1640	312963.200
943	942	1	0.1480	138908.800
944	942	1	0.1480	138908.800
945	942	1	0.1640	312963.200
946	937	1	0.1640	312963.200
947	946	1	0.1640	312963.200
948	947	1	0.1640	312963.200
949	948	1	0.1640	312963.200
950	949	1	0.1480	138908.800
951	949	1	0.1480	138908.800
952	949	1	0.1640	312963.200
954	953	1	0.1640	312963.200
955	953	1	0.1640	312963.200
956	953	1	0.1640	312963.200
957	956	1	0.1640	312963.200
958	957	1	0.1640	312963.200
959	957	1	0.1640	312963.200
960	957	1	0.1640	312963.200
961	960	1	0.1640	312963.200
962	961	1	0.1640	312963.200
963	961	1	0.1640	312963.200
964	961	1	0.1640	312963.200
965	964	1	0.1640	312963.200
966	965	1	0.1640	312963.200
967	965	1	0.1640	312963.200
968	967	1	0.1640	312963.200
969	968	1	0.1640	312963.200
970	969	1	0.1640	312963.200
971	970	1	0.1480	138908.800
972	970	1	0.1480	138908.800
973	970	1	0.1640	312963.200
974	965	1	0.1640	312963.200
975	974	1	0.1640	312963.200
976	975	1	0.1640	312963.200
977	976	1	0.1640	312963.200
978	977	1	0.1480	138908.800
979	977	1	0.1480	138908.800
980	977	1	0.1640	312963.200
982	981	1	0.1640	312963.200
983	981	1	0.1640	312963.200
984	981	1	0.1640	312963.200
985	984	1	0.1640	312963.200
986	985	1	0.1640	312963.200
987	985	1	0.1640	312963.200
988	985	1	0.1640	312963.200
989	988	1	0.1640	312963.200
990	989	1	0.1640	312963.200
991	989	1	0.1640	312963.200
992	989	1	0.1640	312963.200
993	992	1	0.1640	312963.200
994	993	1	0.1640	312963.200
995	993	1	0.1640	312963.200
996	995	1	0.1640	312963.200
997	996	1	0.1640	312963.200
998	997	1	0.1640	312963.200
999	998	1	0.1480	138908.800
1000	998	1	0.1480	138908.800
1001	998	1	0.1640	312963.200
1002	993	1	0.1640	312963.200
1003	1002	1	0.1640	312963.200
1004	1003	1	0.1640	312963.200
1005	1004	1	0.1640	312963.200
1006	1005	1	0.1480	138908.800
1007	1005	1	0.1480	138908.800
1008	1005	1	0.1640	312963.200
1010	1009	1	0.1640	312963.200
1011	1009	1	0.1640	312963.200
1012	1009	1	0.1640	312963.200
1013	1012	1	0.1640	312963.200
1014	1013	1	0.1640	312963.200
1015	1013	1	0.1640	312963.200
1016	1013	1	0.1640	312963.200
1017	1016	1	0.1640	312963.200
1018	1017	1	0.1640	312963.200
1019	1017	1	0.1640	312963.200
1020	1017	1	0.1640	312963.200
1021	1020	1	0.1640	312963.200
1022	1021	1	0.1640	312963.200
1023	1021	1	0.1640	312963.200
1024	1023	1	0.1640	312963.200
1025	1024	1	0.1640	312963.200
1026	1025	1	0.1640	312963.200
1027	1026	1	0.1480	138908.800
1028	1026	1	0.1480	138908.800
1029	1026	1	0.1640	312963.200
1030	1021	1	0.1640	312963.200
1031	1030	1	0.1640	312963.200
1032	1031	1	0.1640	312963.200
1033	1032	1	0.1640	312963.200
1034	1033	1	0.1480	138908.800
1035	1033	1	0.1480	138908.800
1036	1033	1	0.1640	312963.200
1038	1037	1	0.1640	312963.200
1039	1037	1	0.1640	312963.200
1040	1037	1	0.1640	312963.200
1041	1040	1	0.1640	312963.200
1042	1041	1	0.1640	312963.200
1043	1041	1	0.1640	312963.200
1044	1041	1	0.1640	312963.200
1045	1044	1	0.1640	312963.200
1046	1045	1	0.1640	312963.200
1047	1045	1	0.1640	312963.200
1048	1045	1	0.1640	312963.200
1049	1048	1	0.1640	312963.200
1050	1049	1	0.1640	312963.200
1051	1049	1	0.1640	312963.200
1052	1051	1	0.1640	312963.200
1053	1052	1	0.1640	312963.200
1054	1053	1	0.1640	312963.200
1055	1054	1	0.1480	138908.800
1056	1054	1	0.1480	138908.800
1057	1054	1	0.1640	312963.200
1058	1049	1	0.1640	312963.200
1059	1058	1	0.1640	312963.200
1060	1059	1	0.1640	312963.200
1061	1060	1	0.1640	312963.200
1062	1061	1	0.1480	138908.800
1063	1061	1	0.1480	138908.800
1064	1061	1	0.1640	312963.200
1066	1065	1	0.1640	312963.200
1067	1065	1	0.1640	312963.200
1068	1065	1	0.1640	312963.200
1069	1068	1	0.1640	312963.200
1070	1069	1	0.1640	312963.200
1071	1069	1	0.1640	312963.200
1072	1069	1	0.1640	312963.200
1073	1072	1	0.1640	312963.200
1074	1073	1	0.1640	312963.200
1075	1073	1	0.1640	312963.200
1076	1073	1	0.1640	312963.200
1077	1076	1	0.1640	312963.200
1078	1077	1	0.1640	312963.200
1079	1077	1	0.1640	312963.200
1080	1079	1	0.1640	312963.200
1081	1080	1	0.1640	312963.200
1082	1081	1	0.1640	312963.200
1083	1082	1	0.1480	138908.800
1084	1082	1	0.1480	138908.800
1085	1082	1	0.1640	312963.200
1086	1077	1	0.1640	312963.200
1087	1086	1	0.1640	312963.200
1088	1087	1	0.1640	312963.200
1089	1088	1	0.1640	312963.200
1090	1089	1	0.1480	138908.800
1091	1089	1	0.1480	138908.800
1092	1089	1	0.1640	312963.200
1094	1093	1	0.1640	312963.200
1095	1093	1	0.1640	312963.200
1096	1093	1	0.1640	312963.200
1097	1096	1	0.1640	312963.200
1098	1097	1	0.1640	312963.200
1099	1097	1	0.1640	312963.200
1100	1097	1	0.1640	312963.200
1101	1100	1	0.1640	312963.200
1102	1101	1	0.1640	312963.200
1103	1101	1	0.1640	312963.200
1104	1101	1	0.1640	312963.200
1105	1104	1	0.1640	312963.200
1106	1105	1	0.1640	312963.200
1107	1105	1	0.1640	312963.200
1108	1107	1	0.1640	312963.200
1109	1108	1	0.1640	312963.200
1110	1109	1	0.1640	312963.200
1111	1110	1	0.1480	138908.800
1112	1110	1	0.1480	138908.800
1113	1110	1	0.1640	312963.200
1114	1105	1	0.1640	312963.200
1115	1114	1	0.1640	312963.200
1116	1115	1	0.1640	312963.200
1117	1116	1	0.1640	312963.200
1118	1117	1	0.1480	138908.800
1119	1117	1	0.1480	138908.800
1120	1117	1	0.1640	312963.200
1122	1121	1	0.1640	312963.200
1123	1121	1	0.1640	312963.200
1124	1121	1	0.1640	312963.200
1125	1124	1	0.1640	312963.200
1126	1125	1	0.1640	312963.200
1127	1125	1	0.1640	312963.200
1128	1125	1	0.1640	312963.200
1129	1128	1	0.1640	312963.200
1130	1129	1	0.1640	312963.200
1131	1129	1	0.1640	312963.200
1132	1129	1	0.1640	312963.200
1133	1132	1	0.1640	312963.200
1134	1133	1	0.1640	312963.200
1135	1133	1	0.1640	312963.200
1136	1135	1	0.1640	312963.200
1137	1136	1	0.1640	312963.200
1138	1137	1	0.1640	312963.200
1139	1138	1	0.1480	138908.800
1140	1138	1	0.1480	138908.800
1141	1138	1	0.1640	312963.200
1142	1133	1	0.1640	312963.200
1143	1142	1	0.1640	312963.200
1144	1143	1	0.1640	312963.200
1145	1144	1	0.1640	312963.200
1146	1145	1	0.1480	138908.800
1147	1145	1	0.1480	138908.800
1148	1145	1	0.1640	312963.200
1150	1149	1	0.1640	312963.200
1151	1149	1	0.1640	312963.200
1152	1149	1	0.1640	312963.200
1153	1152	1	0.1640	312963.200
1154	1153	1	0.1640	312963.200
1155	1153	1	0.1640	312963.200
1156	1153	1	0.1640	312963.200
1157	1156	1	0.1640	312963.200
1158	1157	1	0.1640	312963.200
1159	1157	1	0.1640	312963.200
1160	1157	1	0.1640	312963.200
1161	1160	1	0.1640	312963.200
1162	1161	1	0.1640	312963.200
1163	1161	1	0.1640	312963.200
1164	1163	1	0.1640	312963.200
1165	1164	1	0.1640	312963.200
1166	1165	1	0.1640	312963.200
1167	1166	1	0.1480	138908.800
1168	1166	1	0.1480	138908.800
1169	1166	1	0.1640	312963.200
1170	1161	1	0.1640	312963.200
1171	1170	1	0.1640	312963.200
1172	1171	1	0.1640	312963.200
1173	1172	1	0.1640	312963.200
1174	1173	1	0.1480	138908.800
1175	1173	1	0.1480	138908.800
1176	1173	1	0.1640	312963.200
1178	1177	1	0.1640	312963.200
1179	1177	1	0.1640	312963.200
1180	1177	1	0.1640	312963.200
1181	1180	1	0.1640	312963.200
1182	1181	1	0.1640	312963.200
1183	1181	1	0.1640	312963.200
1184	1181	1	0.1640	312963.200
1185	1184	1	0.1640	312963.200
1186	1185	1	0.1640	312963.200
1187	1185	1	0.1640	312963.200
1188	1185	1	0.1640	312963.200
1189	1188	1	0.1640	312963.200
1190	1189	1	0.1640	312963.200
1191	1189	1	0.1640	312963.200
1192	1191	1	0.1640	312963.200
1193	1192	1	0.1640	312963.200
1194	1193	1	0.1640	312963.200
1195	1194	1	0.1480	138908.800
1196	1194	1	0.1480	138908.800
1197	1194	1	0.1640	312963.200
1198	1189	1	0.1640	312963.200
1199	1198	1	0.1640	312963.200
1200	1199	1	0.1640	312963.200
1201	1200	1	0.1640	312963.200
1202	1201	1	0.1480	138908.800
1203	1201	1	0.1480	138908.800
1204	1201	1	0.1640	312963.200
1206	1205	1	0.1640	312963.200
1207	1205	1	0.1640	312963.200
1208	1205	1	0.1640	312963.200
1209	1208	1	0.1640	312963.200
1210	1209	1	0.1640	312963.200
1211	1209	1	0.1640	312963.200
1212	1209	1	0.1640	312963.200
1213	1212	1	0.1640	312963.200
1214	1213	1	0.1640	312963.200
1215	1213	1	0.1640	312963.200
1216	1213	1	0.1640	312963.200
1217	1216	1	0.1640	312963.200
1218	1217	1	0.1640	312963.200
1219	1217	1	0.1640	312963.200
1220	1219	1	0.1640	312963.200
1221	1220	1	0.1640	312963.200
1222	1221	1	0.1640	312963.200
1223	1222	1	0.1480	138908.800
1224	1222	1	0.1480	138908.800
1225	1222	1	0.1640	312963.200
1226	1217	1	0.1640	312963.200
1227	1226	1	0.1640	312963.200
1228	1227	1	0.1640	312963.200
1229	1228	1	0.1640	312963.200
1230	1229	1	0.1480	138908.800
1231	1229	1	0.1480	138908.800
1232	1229	1	0.1640	312963.200
1234	1233	1	0.1640	312963.200
1235	1233	1	0.1640	312963.200
1236	1233	1	0.1640	312963.200
1237	1236	1	0.1640	312963.200
1238	1237	1	0.1640	312963.200
1239	1237	1	0.1640	312963.200
1240	1237	1	0.1640	312963.200
1241	1240	1	0.1640	312963.200
1242	1241	1	0.1640	312963.200
1243	1241	1	0.1640	312963.200
1244	1241	1	0.1640	312963.200
1245	1244	1	0.1640	312963.200
1246	1245	1	0.1640	312963.200
1247	1245	1	0.1640	312963.200
1248	1247	1	0.1640	312963.200
1249	1248	1	0.1640	312963.200
1250	1249	1	0.1640	312963.200
1251	1250	1	0.1480	138908.800
1252	1250	1	0.1480	138908.800
1253	1250	1	0.1640	312963.200
1254	1245	1	0.1640	312963.200
1255	1254	1	0.1640	312963.200
1256	1255	1	0.1640	312963.200
1257	1256	1	0.1640	312963.200
1258	1257	1	0.1480	138908.800
1259	1257	1	0.1480	138908.800
1260	1257	1	0.1640	312963.200
1262	1261	1	0.1640	312963.200
1263	1261	1	0.1640	312963.200
1264	1261	1	0.1640	312963.200
1265	1264	1	0.1640	312963.200
1266	1265	1	0.1640	312963.200
1267	1265	1	0.1640	312963.200
1268	1265	1	0.1640	312963.200
1269	1268	1	0.1640	312963.200
1270	1269	1	0.1640	312963.200
1271	1269	1	0.1640	312963.200
1272	1269	1	0.1640	312963.200
1273	1272	1	0.1640	312963.200
1274	1273	1	0.1640	312963.200
1275	1273	1	0.1640	312963.200
1276	1275	1	0.1640	312963.200
1277	1276	1	0.1640	312963.200
1278	1277	1	0.1640	312963.200
1279	1278	1	0.1480	138908.800
1280	1278	1	0.1480	138908.800
1281	1278	1	0.1640	312963.200
1282	1273	1	0.1640	312963.200
1283	1282	1	0.1640	312963.200
1284	1283	1	0.1640	312963.200
1285	1284	1	0.1640	312963.200
1286	1285	1	0.1480	138908.800
1287	1285	1	0.1480	138908.800
1288	1285	1	0.1640	312963.200
1290	1289	1	0.1640	312963.200
1291	1289	1	0.1640	312963.200
1292	1289	1	0.1640	312963.200
1293	1292	1	0.1640	312963.200
1294	1293	1	0.1640	312963.200
1295	1293	1	0.1640	312963.200
1296	1293	1	0.1640	312963.200
1297	1296	1	0.1640	312963.200
1298	1297	1	0.1640	312963.200
1299	1297	1	0.1640	312963.200
1300	1297	1	0.1640	312963.200
1301	1300	1	0.1640	312963.200
1302	1301	1	0.1640	312963.200
1303	1301	1	0.1640	312963.200
1304	1303	1	0.1640	312963.200
1305	1304	1	0.1640	312963.200
1306	1305	1	0.1640	312963.200
1307	1306	1	0.1480	138908.800
1308	1306	1	0.1480	138908.800
1309	1306	1	0.1640	312963.200
1310	1301	1	0.1640	312963.200
1311	1310	1	0.1640	312963.200
1312	1311	1	0.1640	312963.200
1313	1312	1	0.1640	312963.200
1314	1313	1	0.1480	138908.800
1315	1313	1	0.1480	138908.800
1316	1313	1	0.1640	312963.200
1318	1317	1	0.1640	312963.200
1319	1317	1	0.1640	312963.200
1320	1317	1	0.1640	312963.200
1321	1320	1	0.1640	312963.200
1322	1321	1	0.1640	312963.200
1323	1321	1	0.1640	312963.200
1324	1321	1	0.1640	312963.200
1325	1324	1	0.1640	312963.200
1326	1325	1	0.1640	312963.200
1327	1325	1	0.1640	312963.200
1328	1325	1	0.1640	312963.200
1329	1328	1	0.1640	312963.200
1330	1329	1	0.1640	312963.200
1331	1329	1	0.1640	312963.200
1332	1331	1	0.1640	312963.200
1333	1332	1	0.1640	312963.200
1334	1333	1	0.1640	312963.200
1335	1334	1	0.1480	138908.800
1336	1334	1	0.1480	138908.800
1337	1334	1	0.1640	312963.200
1338	1329	1	0.1640	312963.200
1339	1338	1	0.1640	312963.200
1340	1339	1	0.1640	312963.200
1341	1340	1	0.1640	312963.200
1342	1341	1	0.1480	138908.800
1343	1341	1	0.1480	138908.800
1344	1341	1	0.1640	312963.200
1346	1345	1	0.1640	312963.200
1347	1345	1	0.1640	312963.200
1348	1345	1	0.1640	312963.200
1349	1348	1	0.1640	312963.200
1350	1349	1	0.1640	312963.200
1351	1349	1	0.1640	312963.200
1352	1349	1	0.1640	312963.200
1353	1352	1	0.1640	312963.200
1354	1353	1	0.1640	312963.200
1355	1353	1	0.1640	312963.200
1356	1353	1	0.1640	312963.200
1357	1356	1	0.1640	312963.200
1358	1357	1	0.1640	312963.200
1359	1357	1	0.1640	312963.200
1360	1359	1	0.1640	312963.200
1361	1360	1	0.1640	312963.200
1362	1361	1	0.1640	312963.200
1363	1362	1	0.1480	138908.800
1364	1362	1	0.1480	138908.800
1365	1362	1	0.1640	312963.200
1366	1357	1	0.1640	312963.200
1367	1366	1	0.1640	312963.200
1368	1367	1	0.1640	312963.200
1369	1368	1	0.1640	312963.200
1370	1369	1	0.1480	138908.800
1371	1369	1	0.1480	138908.800
1372	1369	1	0.1640	312963.200
1374	1373	1	0.1640	312963.200
1375	1373	1	0.1640	312963.200
1376	1373	1	0.1640	312963.200
1377	1376	1	0.1640	312963.200
1378	1377	1	0.1640	312963.200
1379	1377	1	0.1640	312963.200
1380	1377	1	0.1640	312963.200
1381	1380	1	0.1640	312963.200
1382	1381	1	0.1640	312963.200
1383	1381	1	0.1640	312963.200
1384	1381	1	0.1640	312963.200
1385	1384	1	0.1640	312963.200
1386	1385	1	0.1640	312963.200
1387	1385	1	0.1640	312963.200
1388	1387	1	0.1640	312963.200
1389	1388	1	0.1640	312963.200
1390	1389	1	0.1640	312963.200
1391	1390	1	0.1480	138908.800
1392	1390	1	0.1480	138908.800
1393	1390	1	0.1640	312963.200
1394	1385	1	0.1640	312963.200
1395	1394	1	0.1640	312963.200
1396	1395	1	0.1640	312963.200
1397	1396	1	0.1640	312963.200
1398	1397	1	0.1480	138908.800
1399	1397	1	0.1480	138908.800
1400	1397	1	0.1640	312963.200
1402	1401	1	0.1640	312963.200
1403	1401	1	0.1640	312963.200
1404	1401	1	0.1640	312963.200
1405	1404	1	0.1640	312963.200
1406	1405	1	0.1640	312963.200
1407	1405	1	0.1640	312963.200
1408	1405	1	0.1640	312963.200
1409	1408	1	0.1640	312963.200
1410	1409	1	0.1640	312963.200
1411	1409	1	0.1640	312963.200
1412	1409	1	0.1640	312963.200
1413	1412	1	0.1640	312963.200
1414	1413	1	0.1640	312963.200
1415	1413	1	0.1640	312963.200
1416	1415	1	0.1640	312963.200
1417	1416	1	0.1640	312963.200
1418	1417	1	0.1640	312963.200
1419	1418	1	0.1480	138908.800
1420	1418	1	0.1480	138908.800
1421	1418	1	0.1640	312963.200
1422	1413	1	0.1640	312963.200
1423	1422	1	0.1640	312963.200
1424	1423	1	0.1640	312963.200
1425	1424	1	0.1640	312963.200
1426	1425	1	0.1480	138908.800
1427	1425	1	0.1480	138908.800
1428	1425	1	0.1640	312963.200
1430	1429	1	0.1640	312963.200
1431	1429	1	0.1640	312963.200
1432	1429	1	0.1640	312963.200
1433	1432	1	0.1640	312963.200
1434	1433	1	0.1640	312963.200
1435	1433	1	0.1640	312963.200
1436	1433	1	0.1640	312963.200
1437	1436	1	0.1640	312963.200
1438	1437	1	0.1640	312963.200
1439	1437	1	0.1640	312963.200
1440	1437	1	0.1640	312963.200
1441	1440	1	0.1640	312963.200
1442	1441	1	0.1640	312963.200
1443	1441	1	0.1640	312963.200
1444	1443	1	0.1640	312963.200
1445	1444	1	0.1640	312963.200
1446	1445	1	0.1640	312963.200
1447	1446	1	0.1480	138908.800
1448	1446	1	0.1480	138908.800
1449	1446	1	0.1640	312963.200
1450	1441	1	0.1640	312963.200
1451	1450	1	0.1640	312963.200
1452	1451	1	0.1640	312963.200
1453	1452	1	0.1640	312963.200
1454	1453	1	0.1480	138908.800
1455	1453	1	0.1480	138908.800
1456	1453	1	0.1640	312963.200
1458	1457	1	0.1640	312963.200
1459	1457	1	0.1640	312963.200
1460	1457	1	0.1640	312963.200
1461	1460	1	0.1640	312963.200
1462	1461	1	0.1640	312963.200
1463	1461	1	0.1640	312963.200
1464	1461	1	0.1640	312963.200
1465	1464	1	0.1640	312963.200
1466	1465	1	0.1640	312963.200
1467	1465	1	0.1640	312963.200
1468	1465	1	0.1640	312963.200
1469	1468	1	0.1640	312963.200
1470	1469	1	0.1640	312963.200
1471	1469	1	0.1640	312963.200
1472	1471	1	0.1640	312963.200
1473	1472	1	0.1640	312963.200
1474	1473	1	0.1640	312963.200
1475	1474	1	0.1480	138908.800
1476	1474	1	0.1480	138908.800
1477	1474	1	0.1640	312963.200
1478	1469	1	0.1640	312963.200
1479	1478	1	0.1640	312963.200
1480	1479	1	0.1640	312963.200
1481	1480	1	0.1640	312963.200
1482	1481	1	0.1480	138908.800
1483	1481	1	0.1480	138908.800
1484	1481	1	0.1640	312963.200
1486	1485	1	0.1640	312963.200
1487	1485	1	0.1640	312963.200
1488	1485	1	0.1640	312963.200
1489	1488	1	0.1640	312963.200
1490	1489	1	0.1640	312963.200
1491	1489	1	0.1640	312963.200
1492	1489	1	0.1640	312963.200
1493	1492	1	0.1640	312963.200
1494	1493	1	0.1640	312963.200
1495	1493	1	0.1640	312963.200
1496	1493	1	0.1640	312963.200
1497	1496	1	0.1640	312963.200
1498	1497	1	0.1640	312963.200
1499	1497	1	0.1640	312963.200
1500	1499	1	0.1640	312963.200
1501	1500	1	0.1640	312963.200
1502	1501	1	0.1640	312963.200
1503	1502	1	0.1480	138908.800
1504	1502	1	0.1480	138908.800
1505	1502	1	0.1640	312963.200
1506	1497	1	0.1640	312963.200
1507	1506	1	0.1640	312963.200
1508	1507	1	0.1640	312963.200
1509	1508	1	0.1640	312963.200
1510	1509	1	0.1480	138908.800
1511	1509	1	0.1480	138908.800
1512	1509	1	0.1640	312963.200
1514	1513	1	0.1640	312963.200
1515	1513	1	0.1640	312963.200
1516	1513	1	0.1640	312963.200
1517	1516	1	0.1640	312963.200
1518	1517	1	0.1640	312963.200
1519	1517	1	0.1640	312963.200
1520	1517	1	0.1640	312963.200
1521	1520	1	0.1640	312963.200
1522	1521	1	0.1640	312963.200
1523	1521	1	0.1640	312963.200
1524	1521	1	0.1640	312963.200
1525	1524	1	0.1640	312963.200
1526	1525	1	0.1640	312963.200
1527	1525	1	0.1640	312963.200
1528	1527	1	0.1640	312963.200
1529	1528	1	0.1640	312963.200
1530	1529	1	0.1640	312963.200
1531	1530	1	0.1480	138908.800
1532	1530	1	0.1480	138908.800
1533	1530	1	0.1640	312963.200
1534	1525	1	0.1640	312963.200
1535	1534	1	0.1640	312963.200
1536	1535	1	0.1640	312963.200
1537	1536	1	0.1640	312963.200
1538	1537	1	0.1480	138908.800
1539	1537	1	0.1480	138908.800
1540	1537	1	0.1640	312963.200
1542	1541	1	0.1640	312963.200
1543	1541	1	0.1640	312963.200
1544	1541	1	0.1640	312963.200
1545	1544	1	0.1640	312963.200
1546	1545	1	0.1640	312963.200
1547	1545	1	0.1640	312963.200
1548	1545	1	0.1640	312963.200
1549	1548	1	0.1640	312963.200
1550	1549	1	0.1640	312963.200
1551	1549	1	0.1640	312963.200
1552	1549	1	0.1640	312963.200
1553	1552	1	0.1640	312963.200
1554	1553	1	0.1640	312963.200
1555	1553	1	0.1640	312963.200
1556	1555	1	0.1640	312963.200
1557	1556	1	0.1640	312963.200
1558	1557	1	0.1640	312963.200
1559	1558	1	0.1480	138908.800
1560	1558	1	0.1480	138908.800
1561	1558	1	0.1640	312963.200
1562	1553	1	0.1640	312963.200
1563	1562	1	0.1640	312963.200
1564	1563	1	0.1640	312963.200
1565	1564	1	0.1640	312963.200
1566	1565	1	0.1480	138908.800
1567	1565	1	0.1480	138908.800
1568	1565	1	0.1640	312963.200
1570	1569	1	0.1640	312963.200
1571	1569	1	0.1640	312963.200
1572	1569	1	0.1640	312963.200
1573	1572	1	0.1640	312963.200
1574	1573	1	0.1640	312963.200
1575	1573	1	0.1640	312963.200
1576	1573	1	0.1640	312963.200
1577	1576	1	0.1640	312963.200
1578	1577	1	0.1640	312963.200
1579	1577	1	0.1640	312963.200
1580	1577	1	0.1640	312963.200
1581	1580	1	0.1640	312963.200
1582	1581	1	0.1640	312963.200
1583	1581	1	0.1640	312963.200
1584	1583	1	0.1640	312963.200
1585	1584	1	0.1640	312963.200
1586	1585	1	0.1640	312963.200
1587	1586	1	0.1480	138908.800
1588	1586	1	0.1480	138908.800
1589	1586	1	0.1640	312963.200
1590	1581	1	0.1640	312963.200
1591	1590	1	0.1640	312963.200
1592	1591	1	0.1640	312963.200
1593	1592	1	0.1640	312963.200
1594	1593	1	0.1480	138908.800
1595	1593	1	0.1480	138908.800
1596	1593	1	0.1640	312963.200
1598	1597	1	0.1640	312963.200
1599	1597	1	0.1640	312963.200
1600	1597	1	0.1640	312963.200
1601	1600	1	0.1640	312963.200
1602	1601	1	0.1640	312963.200
1603	1601	1	0.1640	312963.200
1604	1601	1	0.1640	312963.200
1605	1604	1	0.1640	312963.200
1606	1605	1	0.1640	312963.200
1607	1605	1	0.1640	312963.200
1608	1605	1	0.1640	312963.200
1609	1608	1	0.1640	312963.200
1610	1609	1	0.1640	312963.200
1611	1609	1	0.1640	312963.200
1612	1611	1	0.1640	312963.200
1613	1612	1	0.1640	312963.200
1614	1613	1	0.1640	312963.200
1615	1614	1	0.1480	138908.800
1616	1614	1	0.1480	138908.800
1617	1614	1	0.1640	312963.200
1618	1609	1	0.1640	312963.200
1619	1618	1	0.1640	312963.200
1620	1619	1	0.1640	312963.200
1621	1620	1	0.1640	312963.200
1622	1621	1	0.1480	138908.800
1623	1621	1	0.1480	138908.800
1624	1621	1	0.1640	312963.200
1626	1625	1	0.1640	312963.200
1627	1625	1	0.1640	312963.200
1628	1625	1	0.1640	312963.200
1629	1628	1	0.1640	312963.200
1630	1629	1	0.1640	312963.200
1631	1629	1	0.1640	312963.200
1632	1629	1	0.1640	312963.200
1633	1632	1	0.1640	312963.200
1634	1633	1	0.1640	312963.200
1635	1633	1	0.1640	312963.200
1636	1633	1	0.1640	312963.200
1637	1636	1	0.1640	312963.200
1638	1637	1	0.1640	312963.200
1639	1637	1	0.1640	312963.200
1640	1639	1	0.1640	312963.200
1641	1640	1	0.1640	312963.200
1642	1641	1	0.1640	312963.200
1643	1642	1	0.1480	138908.800
1644	1642	1	0.1480	138908.800
1645	1642	1	0.1640	312963.200
1646	1637	1	0.1640	312963.200
1647	1646	1	0.1640	312963.200
1648	1647	1	0.1640	312963.200
1649	1648	1	0.1640	312963.200
1650	1649	1	0.1480	138908.800
1651	1649	1	0.1480	138908.800
1652	1649	1	0.1640	312963.200
1654	1653	1	0.1640	312963.200
1655	1653	1	0.1640	312963.200
1656	1653	1	0.1640	312963.200
1657	1656	1	0.1640	312963.200
1658	1657	1	0.1640	312963.200
1659	1657	1	0.1640	312963.200
1660	1657	1	0.1640	312963.200
1661	1660	1	0.1640	312963.200
1662	1661	1	0.1640	312963.200
1663	1661	1	0.1640	312963.200
1664	1661	1	0.1640	312963.200
1665	1664	1	0.1640	312963.200
1666	1665	1	0.1640	312963.200
1667	1665	1	0.1640	312963.200
1668	1667	1	0.1640	312963.200
1669	1668	1	0.1640	312963.200
1670	1669	1	0.1640	312963.200
1671	1670	1	0.1480	138908.800
1672	1670	1	0.1480	138908.800
1673	1670	1	0.1640	312963.200
1674	1665	1	0.1640	312963.200
1675	1674	1	0.1640	312963.200
1676	1675	1	0.1640	312963.200
1677	1676	1	0.1640	312963.200
1678	1677	1	0.1480	138908.800
1679	1677	1	0.1480	138908.800
1680	1677	1	0.1640	312963.200
1682	1681	1	0.1640	312963.200
1683	1681	1	0.1640	312963.200
1684	1681	1	0.1640	312963.200
1685	1684	1	0.1640	312963.200
1686	1685	1	0.1640	312963.200
1687	1685	1	0.1640	312963.200
1688	1685	1	0.1640	312963.200
1689	1688	1	0.1640	312963.200
1690	1689	1	0.1640	312963.200
1691	1689	1	0.1640	312963.200
1692	1689	1	0.1640	312963.200
1693	1692	1	0.1640	312963.200
1694	1693	1	0.1640	312963.200
1695	1693	1	0.1640	312963.200
1696	1695	1	0.1640	312963.200
1697	1696	1	0.1640	312963.200
1698	1697	1	0.1640	312963.200
1699	1698	1	0.1480	138908.800
1700	1698	1	0.1480	138908.800
1701	1698	1	0.1640	312963.200
1702	1693	1	0.1640	312963.200
1703	1702	1	0.1640	312963.200
1704	1703	1	0.1640	312963.200
1705	1704	1	0.1640	312963.200
1706	1705	1	0.1480	138908.800
1707	1705	1	0.1480	138908.800
1708	1705	1	0.1640	312963.200
1710	1709	1	0.1640	312963.200
1711	1709	1	0.1640	312963.200
1712	1709	1	0.1640	312963.200
1713	1712	1	0.1640	312963.200
1714	1713	1	0.1640	312963.200
1715	1713	1	0.1640	312963.200
1716	1713	1	0.1640	312963.200
1717	1716	1	0.1640	312963.200
1718	1717	1	0.1640	312963.200
1719	1717	1	0.1640	312963.200
1720	1717	1	0.1640	312963.200
1721	1720	1	0.1640	312963.200
1722	1721	1	0.1640	312963.200
1723	1721	1	0.1640	312963.200
1724	1723	1	0.1640	312963.200
1725	1724	1	0.1640	312963.200
1726	1725	1	0.1640	312963.200
1727	1726	1	0.1480	138908.800
1728	1726	1	0.1480	138908.800
1729	1726	1	0.1640	312963.200
1730	1721	1	0.1640	312963.200
1731	1730	1	0.1640	312963.200
1732	1731	1	0.1640	312963.200
1733	1732	1	0.1640	312963.200
1734	1733	1	0.1480	138908.800
1735	1733	1	0.1480	138908.800
1736	1733	1	0.1640	312963.200
1738	1737	1	0.1640	312963.200
1739	1737	1	0.1640	312963.200
1740	1737	1	0.1640	312963.200
1741	1740	1	0.1640	312963.200
1742	1741	1	0.1640	312963.200
1743	1741	1	0.1640	312963.200
1744	1741	1	0.1640	312963.200
1745	1744	1	0.1640	312963.200
1746	1745	1	0.1640	312963.200
1747	1745	1	0.1640	312963.200
1748	1745	1	0.1640	312963.200
1749	1748	1	0.1640	312963.200
1750	1749	1	0.1640	312963.200
1751	1749	1	0.1640	312963.200
1752	1751	1	0.1640	312963.200
1753	1752	1	0.1640	312963.200
1754	1753	1	0.1640	312963.200
1755	1754	1	0.1480	138908.800
1756	1754	1	0.1480	138908.800
1757	1754	1	0.1640	312963.200
1758	1749	1	0.1640	312963.200
1759	1758	1	0.1640	312963.200
1760	1759	1	0.1640	312963.200
1761	1760	1	0.1640	312963.200
1762	1761	1	0.1480	138908.800
1763	1761	1	0.1480	138908.800
1764	1761	1	0.1640	312963.200
1766	1765	1	0.1640	312963.200
1767	1765	1	0.1640	312963.200
1768	1765	1	0.1640	312963.200
1769	1768	1	0.1640	312963.200
1770	1769	1	0.1640	312963.200
1771	1769	1	0.1640	312963.200
1772	1769	1	0.1640	312963.200
1773	1772	1	0.1640	312963.200
1774	1773	1	0.1640	312963.200
1775	1773	1	0.1640	312963.200
1776	1773	1	0.1640	312963.200
1777	1776	1	0.1640	312963.200
1778	1777	1	0.1640	312963.200
1779	1777	1	0.1640	312963.200
1780	1779	1	0.1640	312963.200
1781	1780	1	0.1640	312963.200
1782	1781	1	0.1640	312963.200
1783	1782	1	0.1480	138908.800
1784	1782	1	0.1480	138908.800
1785	1782	1	0.1640	312963.200
1786	1777	1	0.1640	312963.200
1787	1786	1	0.1640	312963.200
1788	1787	1	0.1640	312963.200
1789	1788	1	0.1640	312963.200
1790	1789	1	0.1480	138908.800
1791	1789	1	0.1480	138908.800
1792	1789	1	0.1640	312963.200
23	35	1	0.164	312963.2
23	49	1	0.164	312963.2
51	63	1	0.164	312963.2
51	77	1	0.164	312963.2
79	91	1	0.164	312963.2
79	105	1	0.164	312963.2
107	119	1	0.164	312963.2
107	133	1	0.164	312963.2
135	147	1	0.164	312963.2
135	161	1	0.164	312963.2
163	175	1	0.164	312963.2
163	189	1	0.164	312963.2
191	203	1	0.164	312963.2
191	217	1	0.164	312963.2
247	259	1	0.164	312963.2
247	273	1	0.164	312963.2
275	287	1	0.164	312963.2
275	301	1	0.164	312963.2
303	315	1	0.164	312963.2
303	329	1	0.164	312963.2
331	343	1	0.164	312963.2
331	357	1	0.164	312963.2
359	371	1	0.164	312963.2
359	385	1	0.164	312963.2
387	399	1	0.164	312963.2
387	413	1	0.164	312963.2
415	427	1	0.164	312963.2
415	441	1	0.164	312963.2
471	483	1	0.164	312963.2
471	497	1	0.164	312963.2
499	511	1	0.164	312963.2
499	525	1	0.164	312963.2
527	539	1	0.164	312963.2
527	553	1	0.164	312963.2
555	567	1	0.164	312963.2
555	581	1	0.164	312963.2
583	595	1	0.164	312963.2
583	609	1	0.164	312963.2
611	623	1	0.164	312963.2
611	637	1	0.164	312963.2
639	651	1	0.164	312963.2
639	665	1	0.164	312963.2
695	707	1	0.164	312963.2
695	721	1	0.164	312963.2
723	735	1	0.164	312963.2
723	749	1	0.164	312963.2
751	763	1	0.164	312963.2
751	777	1	0.164	312963.2
779	791	1	0.164	312963.2
779	805	1	0.164	312963.2
807	819	1	0.164	312963.2
807	833	1	0.164	312963.2
835	847	1	0.164	312963.2
835	861	1	0.164	312963.2
863	875	1	0.164	312963.2
863	889	1	0.164	312963.2
919	931	1	0.164	312963.2
919	945	1	0.164	312963.2
947	959	1	0.164	312963.2
947	973	1	0.164	312963.2
975	987	1	0.164	312963.2
975	1001	1	0.164	312963.2
1003	1015	1	0.164	312963.2
1003	1029	1	0.164	312963.2
1031	1043	1	0.164	312963.2
1031	1057	1	0.164	312963.2
1059	1071	1	0.164	312963.2
1059	1085	1	0.164	312963.2
1087	1099	1	0.164	312963.2
1087	1113	1	0.164	312963.2
1143	1155	1	0.164	312963.2
1143	1169	1	0.164	312963.2
1171	1183	1	0.164	312963.2
1171	1197	1	0.164	312963.2
1199	1211	1	0.164	312963.2
1199	1225	1	0.164	312963.2
1227	1239	1	0.164	312963.2
1227	1253	1	0.164	312963.2
1255	1267	1	0.164	312963.2
1255	1281	1	0.164	312963.2
1283	1295	1	0.164	312963.2
1283	1309	1	0.164	312963.2
1311	1323	1	0.164	312963.2
1311	1337	1	0.164	312963.2
1367	1379	1	0.164	312963.2
1367	1393	1	0.164	312963.2
1395	1407	1	0.164	312963.2
1395	1421	1	0.164	312963.2
1423	1435	1	0.164	312963.2
1423	1449	1	0.164	312963.2
1451	1463	1	0.164	312963.2
1451	1477	1	0.164	312963.2
1479	1491	1	0.164	312963.2
1479	1505	1	0.164	312963.2
1507	1519	1	0.164	312963.2
1507	1533	1	0.164	312963.2
1535	1547	1	0.164	312963.2
1535	1561	1	0.164	312963.2
1591	1603	1	0.164	312963.2
1591	1617	1	0.164	312963.2
1619	1631	1	0.164	312963.2
1619	1645	1	0.164	312963.2
1647	1659	1	0.164	312963.2
1647	1673	1	0.164	312963.2
1675	1687	1	0.164	312963.2
1675	1701	1	0.164	312963.2
1703	1715	1	0.164	312963.2
1703	1729	1	0.164	312963.2
1731	1743	1	0.164	312963.2
1731	1757	1	0.164	312963.2
1759	1771	1	0.164	312963.2
1759	1785	1	0.164	312963.2
219	7	1	0.164	312963.2
219	21	1	0.164	312963.2
443	231	1	0.164	312963.2
443	245	1	0.164	312963.2
667	455	1	0.164	312963.2
667	469	1	0.164	312963.2
891	679	1	0.164	312963.2
891	693	1	0.164	312963.2
1115	903	1	0.164	312963.2
1115	917	1	0.164	312963.2
1339	1127	1	0.164	312963.2
1339	1141	1	0.164	312963.2
1563	1351	1	0.164	312963.2
1563	1365	1	0.164	312963.2
1787	1575	1	0.164	312963.2
1787	1589	1	0.164	312963.2
16	230	1	0.164	312963.2
16	252	1	0.164	312963.2
44	258	1	0.164	312963.2
44	280	1	0.164	312963.2
72	286	1	0.164	312963.2
72	308	1	0.164	312963.2
100	314	1	0.164	312963.2
100	336	1	0.164	312963.2
128	342	1	0.164	312963.2
128	364	1	0.164	312963.2
156	370	1	0.164	312963.2
156	392	1	0.164	312963.2
184	398	1	0.164	312963.2
184	420	1	0.164	312963.2
212	426	1	0.164	312963.2
212	448	1	0.164	312963.2
240	454	1	0.164	312963.2
240	476	1	0.164	312963.2
268	482	1	0.164	312963.2
268	504	1	0.164	312963.2
296	510	1	0.164	312963.2
296	532	1	0.164	312963.2
324	538	1	0.164	312963.2
324	560	1	0.164	312963.2
352	566	1	0.164	312963.2
352	588	1	0.164	312963.2
380	594	1	0.164	312963.2
380	616	1	0.164	312963.2
408	622	1	0.164	312963.2
408	644	1	0.164	312963.2
436	650	1	0.164	312963.2
436	672	1	0.164	312963.2
464	678	1	0.164	312963.2
464	700	1	0.164	312963.2
492	706	1	0.164	312963.2
492	728	1	0.164	312963.2
520	734	1	0.164	312963.2
520	756	1	0.164	312963.2
548	762	1	0.164	312963.2
548	784	1	0.164	312963.2
576	790	1	0.164	312963.2
576	812	1	0.164	312963.2
604	818	1	0.164	312963.2
604	840	1	0.164	312963.2
632	846	1	0.164	312963.2
632	868	1	0.164	312963.2
660	874	1	0.164	312963.2
660	896	1	0.164	312963.2
688	902	1	0.164	312963.2
688	924	1	0.164	312963.2
716	930	1	0.164	312963.2
716	952	1	0.164	312963.2
744	958	1	0.164	312963.2
744	980	1	0.164	312963.2
772	986	1	0.164	312963.2
772	1008	1	0.164	312963.2
800	1014	1	0.164	312963.2
800	1036	1	0.164	312963.2
828	1042	1	0.164	312963.2
828	1064	1	0.164	312963.2
856	1070	1	0.164	312963.2
856	1092	1	0.164	312963.2
884	1098	1	0.164	312963.2
884	1120	1	0.164	312963.2
912	1126	1	0.164	312963.2
912	1148	1	0.164	312963.2
940	1154	1	0.164	312963.2
940	1176	1	0.164	312963.2
968	1182	1	0.164	312963.2
968	1204	1	0.164	312963.2
996	1210	1	0.164	312963.2
996	1232	1	0.164	312963.2
1024	1238	1	0.164	312963.2
1024	1260	1	0.164	312963.2
1052	1266	1	0.164	312963.2
1052	1288	1	0.164	312963.2
1080	1294	1	0.164	312963.2
1080	1316	1	0.164	312963.2
1108	1322	1	0.164	312963.2
1108	1344	1	0.164	312963.2
1136	1350	1	0.164	312963.2
1136	1372	1	0.164	312963.2
1164	1378	1	0.164	312963.2
1164	1400	1	0.164	312963.2
1192	1406	1	0.164	312963.2
1192	1428	1	0.164	312963.2
1220	1434	1	0.164	312963.2
1220	1456	1	0.164	312963.2
1248	1462	1	0.164	312963.2
1248	1484	1	0.164	312963.2
1276	1490	1	0.164	312963.2
1276	1512	1	0.164	312963.2
1304	1518	1	0.164	312963.2
1304	1540	1	0.164	312963.2
1332	1546	1	0.164	312963.2
1332	1568	1	0.164	312963.2
1360	1574	1	0.164	312963.2
1360	1596	1	0.164	312963.2
1388	1602	1	0.164	312963.2
1388	1624	1	0.164	312963.2
1416	1630	1	0.164	312963.2
1416	1652	1	0.164	312963.2
1444	1658	1	0.164	312963.2
1444	1680	1	0.164	312963.2
1472	1686	1	0.164	312963.2
1472	1708	1	0.164	312963.2
1500	1714	1	0.164	312963.2
1500	1736	1	0.164	312963.2
1528	1742	1	0.164	312963.2
1528	1764	1	0.164	312963.2
1556	1770	1	0.164	312963.2
1556	1792	1	0.164	312963.2
1584	6	1	0.164	312963.2
1584	28	1	0.164	312963.2
1612	34	1	0.164	312963.2
1612	56	1	0.164	312963.2
1640	62	1	0.164	312963.2
1640	84	1	0.164	312963.2
1668	90	1	0.164	312963.2
1668	112	1	0.164	312963.2
1696	118	1	0.164	312963.2
1696	140	1	0.164	312963.2
1724	146	1	0.164	312963.2
1724	168	1	0.164	312963.2
1752	174	1	0.164	312963.2
1752	196	1	0.164	312963.2
1780	202	1	0.164	312963.2
1780	224	1	0.164	312963.2
1	1778	1	0.164	312963.2
225	210	1	0.164	312963.2
449	434	1	0.164	312963.2
673	658	1	0.164	312963.2
897	882	1	0.164	312963.2
1121	1106	1	0.164	312963.2
1345	1330	1	0.164	312963.2
1569	1554	1	0.164	312963.2
29	1582	1	0.164	312963.2
57	1610	1	0.164	312963.2
85	1638	1	0.164	312963.2
113	1666	1	0.164	312963.2
141	1694	1	0.164	312963.2
169	1722	1	0.164	312963.2
197	1750	1	0.164	312963.2
253	14	1	0.164	312963.2
281	42	1	0.164	312963.2
309	70	1	0.164	312963.2
337	98	1	0.164	312963.2
365	126	1	0.164	312963.2
393	154	1	0.164	312963.2
421	182	1	0.164	312963.2
477	238	1	0.164	312963.2
505	266	1	0.164	312963.2
533	294	1	0.164	312963.2
561	322	1	0.164	312963.2
589	350	1	0.164	312963.2
617	378	1	0.164	312963.2
645	406	1	0.164	312963.2
701	462	1	0.164	312963.2
729	490	1	0.164	312963.2
757	518	1	0.164	312963.2
785	546	1	0.164	312963.2
813	574	1	0.164	312963.2
841	602	1	0.164	312963.2
869	630	1	0.164	312963.2
925	686	1	0.164	312963.2
953	714	1	0.164	312963.2
981	742	1	0.164	312963.2
1009	770	1	0.164	312963.2
1037	798	1	0.164	312963.2
1065	826	1	0.164	312963.2
1093	854	1	0.164	312963.2
1149	910	1	0.164	312963.2
1177	938	1	0.164	312963.2
1205	966	1	0.164	312963.2
1233	994	1	0.164	312963.2
1261	1022	1	0.164	312963.2
1289	1050	1	0.164	312963.2
1317	1078	1	0.164	312963.2
1373	1134	1	0.164	312963.2
1401	1162	1	0.164	312963.2
1429	1190	1	0.164	312963.2
1457	1218	1	0.164	312963.2
1485	1246	1	0.164	312963.2
1513	1274	1	0.164	312963.2
1541	1302	1	0.164	312963.2
1597	1358	1	0.164	312963.2
1625	1386	1	0.164	312963.2
1653	1414	1	0.164	312963.2
1681	1442	1	0.164	312963.2
1709	1470	1	0.164	312963.2
1737	1498	1	0.164	312963.2
1765	1526	1	0.164	312963.2
3	1793	1	0.164	312963.2
11	1794	1	0.164	312963.2
10	1795	1	0.164	312963.2
31	1796	1	0.164	312963.2
39	1797	1	0.164	312963.2
38	1798	1	0.164	312963.2
59	1799	1	0.164	312963.2
67	1800	1	0.164	312963.2
66	1801	1	0.164	312963.2
87	1802	1	0.164	312963.2
95	1803	1	0.164	312963.2
94	1804	1	0.164	312963.2
115	1805	1	0.164	312963.2
123	1806	1	0.164	312963.2
122	1807	1	0.164	312963.2
143	1808	1	0.164	312963.2
151	1809	1	0.164	312963.2
150	1810	1	0.164	312963.2
171	1811	1	0.164	312963.2
179	1812	1	0.164	312963.2
178	1813	1	0.164	312963.2
199	1814	1	0.164	312963.2
207	1815	1	0.164	312963.2
206	1816	1	0.164	312963.2
227	1817	1	0.164	312963.2
235	1818	1	0.164	312963.2
234	1819	1	0.164	312963.2
255	1820	1	0.164	312963.2
263	1821	1	0.164	312963.2
262	1822	1	0.164	312963.2
283	1823	1	0.164	312963.2
291	1824	1	0.164	312963.2
290	1825	1	0.164	312963.2
311	1826	1	0.164	312963.2
319	1827	1	0.164	312963.2
318	1828	1	0.164	312963.2
339	1829	1	0.164	312963.2
347	1830	1	0.164	312963.2
346	1831	1	0.164	312963.2
367	1832	1	0.164	312963.2
375	1833	1	0.164	312963.2
374	1834	1	0.164	312963.2
395	1835	1	0.164	312963.2
403	1836	1	0.164	312963.2
402	1837	1	0.164	312963.2
423	1838	1	0.164	312963.2
431	1839	1	0.164	312963.2
430	1840	1	0.164	312963.2
451	1841	1	0.164	312963.2
459	1842	1	0.164	312963.2
458	1843	1	0.164	312963.2
479	1844	1	0.164	312963.2
487	1845	1	0.164	312963.2
486	1846	1	0.164	312963.2
507	1847	1	0.164	312963.2
515	1848	1	0.164	312963.2
514	1849	1	0.164	312963.2
535	1850	1	0.164	312963.2
543	1851	1	0.164	312963.2
542	1852	1	0.164	312963.2
563	1853	1	0.164	312963.2
571	1854	1	0.164	312963.2
570	1855	1	0.164	312963.2
591	1856	1	0.164	312963.2
599	1857	1	0.164	312963.2
598	1858	1	0.164	312963.2
619	1859	1	0.164	312963.2
627	1860	1	0.164	312963.2
626	1861	1	0.164	312963.2
647	1862	1	0.164	312963.2
655	1863	1	0.164	312963.2
654	1864	1	0.164	312963.2
675	1865	1	0.164	312963.2
683	1866	1	0.164	312963.2
682	1867	1	0.164	312963.2
703	1868	1	0.164	312963.2
711	1869	1	0.164	312963.2
710	1870	1	0.164	312963.2
731	1871	1	0.164	312963.2
739	1872	1	0.164	312963.2
738	1873	1	0.164	312963.2
759	1874	1	0.164	312963.2
767	1875	1	0.164	312963.2
766	1876	1	0.164	312963.2
787	1877	1	0.164	312963.2
795	1878	1	0.164	312963.2
794	1879	1	0.164	312963.2
815	1880	1	0.164	312963.2
823	1881	1	0.164	312963.2
822	1882	1	0.164	312963.2
843	1883	1	0.164	312963.2
851	1884	1	0.164	312963.2
850	1885	1	0.164	312963.2
871	1886	1	0.164	312963.2
879	1887	1	0.164	312963.2
878	1888	1	0.164	312963.2
899	1889	1	0.164	312963.2
907	1890	1	0.164	312963.2
906	1891	1	0.164	312963.2
927	1892	1	0.164	312963.2
935	1893	1	0.164	312963.2
934	1894	1	0.164	312963.2
955	1895	1	0.164	312963.2
963	1896	1	0.164	312963.2
962	1897	1	0.164	312963.2
983	1898	1	0.164	312963.2
991	1899	1	0.164	312963.2
990	1900	1	0.164	312963.2
1011	1901	1	0.164	312963.2
1019	1902	1	0.164	312963.2
1018	1903	1	0.164	312963.2
1039	1904	1	0.164	312963.2
1047	1905	1	0.164	312963.2
1046	1906	1	0.164	312963.2
1067	1907	1	0.164	312963.2
1075	1908	1	0.164	312963.2
1074	1909	1	0.164	312963.2
1095	1910	1	0.164	312963.2
1103	1911	1	0.164	312963.2
1102	1912	1	0.164	312963.2
1123	1913	1	0.164	312963.2
1131	1914	1	0.164	312963.2
1130	1915	1	0.164	312963.2
1151	1916	1	0.164	312963.2
1159	1917	1	0.164	312963.2
1158	1918	1	0.164	312963.2
1179	1919	1	0.164	312963.2
1187	1920	1	0.164	312963.2
1186	1921	1	0.164	312963.2
1207	1922	1	0.164	312963.2
1215	1923	1	0.164	312963.2
1214	1924	1	0.164	312963.2
1235	1925	1	0.164	312963.2
1243	1926	1	0.164	312963.2
1242	1927	1	0.164	312963.2
1263	1928	1	0.164	312963.2
1271	1929	1	0.164	312963.2
1270	1930	1	0.164	312963.2
1291	1931	1	0.164	312963.2
1299	1932	1	0.164	312963.2
1298	1933	1	0.164	312963.2
1319	1934	1	0.164	312963.2
1327	1935	1	0.164	312963.2
1326	1936	1	0.164	312963.2
1347	1937	1	0.164	312963.2
1355	1938	1	0.164	312963.2
1354	1939	1	0.164	312963.2
1375	1940	1	0.164	312963.2
1383	1941	1	0.164	312963.2
1382	1942	1	0.164	312963.2
1403	1943	1	0.164	312963.2
1411	1944	1	0.164	312963.2
1410	1945	1	0.164	312963.2
1431	1946	1	0.164	312963.2
1439	1947	1	0.164	312963.2
1438	1948	1	0.164	312963.2
1459	1949	1	0.164	312963.2
1467	1950	1	0.164	312963.2
1466	1951	1	0.164	312963.2
1487	1952	1	0.164	312963.2
1495	1953	1	0.164	312963.2
1494	1954	1	0.164	312963.2
1515	1955	1	0.164	312963.2
1523	1956	1	0.164	312963.2
1522	1957	1	0.164	312963.2
1543	1958	1	0.164	312963.2
1551	1959	1	0.164	312963.2
1550	1960	1	0.164	312963.2
1571	1961	1	0.164	312963.2
1579	1962	1	0.164	312963.2
1578	1963	1	0.164	312963.2
1599	1964	1	0.164	312963.2
1607	1965	1	0.164	312963.2
1606	1966	1	0.164	312963.2
1627	1967	1	0.164	312963.2
1635	1968	1	0.164	312963.2
1634	1969	1	0.164	312963.2
1655	1970	1	0.164	312963.2
1663	1971	1	0.164	312963.2
1662	1972	1	0.164	312963.2
1683	1973	1	0.164	312963.2
1691	1974	1	0.164	312963.2
1690	1975	1	0.164	312963.2
1711	1976	1	0.164	312963.2
1719	1977	1	0.164	312963.2
1718	1978	1	0.164	312963.2
1739	1979	1	0.164	312963.2
1747	1980	1	0.164	312963.2
1746	1981	1	0.164	312963.2
1767	1982	1	0.164	312963.2
1775	1983	1	0.164	312963.2
1774	1984	1	0.164	312963.2

[ angles ]
1	4	5	1	180.000	167.360
4	5	6	1	110.000	502.080
4	5	7	1	110.000	502.080
4	5	8	1	110.000	502.080
5	8	9	1	180.000	167.360
8	9	10	1	109.500	355.640
8	9	11	1	109.500	355.640
8	9	12	1	110.000	502.080
9	12	13	1	180.000	167.360
12	13	14	1	110.000	502.080
12	13	15	1	110.000	502.080
13	15	16	1	180.000	167.360
15	16	17	1	110.000	502.080
16	17	18	1	180.000	167.360
17	18	19	1	109.500	355.640
17	18	20	1	109.500	355.640
19	18	20	1	109.500	292.880
14	13	15	1	110.000	502.080
10	9	11	1	109.500	292.880
6	5	8	1	110.000	502.080
2	1	3	1	110.000	502.080
3	1	4	1	109.500	355.640
2	1	4	1	110.000	502.080
11	9	12	1	109.500	355.640
6	5	7	1	110.000	502.080
7	5	8	1	110.000	502.080
10	9	12	1	109.500	355.640
17	18	21	1	110.000	502.080
12	13	22	1	110.000	502.080
13	22	23	1	180.000	167.360
22	23	24	1	110.000	502.080
23	24	25	1	180.000	167.360
24	25	26	1	109.500	355.640
24	25	27	1	109.500	355.640
24	25	28	1	110.000	502.080
15	13	22	1	110.000	502.080
26	25	27	1	109.500	292.880
26	25	27	1	109.500	292.880
14	13	22	1	109.500	355.640
28	25	27	1	109.500	355.640
20	18	21	1	109.500	355.640
19	18	21	1	109.500	355.640
29	32	33	1	180.000	167.360
32	33	34	1	110.000	502.080
32	33	35	1	110.000	502.080
32	33	36	1	110.000	502.080
33	36	37	1	180.000	167.360
36	37	38	1	109.500	355.640
36	37	39	1	109.500	355.640
36	37	40	1	110.000	502.080
37	40	41	1	180.000	167.360
40	41	42	1	110.000	502.080
40	41	43	1	110.000	502.080
41	43	44	1	180.000	167.360
43	44	45	1	110.000	502.080
44	45	46	1	180.000	167.360
45	46	47	1	109.500	355.640
45	46	48	1	109.500	355.640
47	46	48	1	109.500	292.880
42	41	43	1	110.000	502.080
38	37	39	1	109.500	292.880
34	33	36	1	110.000	502.080
30	29	31	1	110.000	502.080
31	29	32	1	109.500	355.640
30	29	32	1	110.000	502.080
39	37	40	1	109.500	355.640
34	33	35	1	110.000	502.080
35	33	36	1	110.000	502.080
38	37	40	1	109.500	355.640
45	46	49	1	110.000	502.080
40	41	50	1	110.000	502.080
41	50	51	1	180.000	167.360
50	51	52	1	110.000	502.080
51	52	53	1	180.000	167.360
52	53	54	1	109.500	355.640
52	53	55	1	109.500	355.640
52	53	56	1	110.000	502.080
43	41	50	1	110.000	502.080
54	53	55	1	109.500	292.880
54	53	55	1	109.500	292.880
42	41	50	1	109.500	355.640
56	53	55	1	109.500	355.640
48	46	49	1	109.500	355.640
47	46	49	1	109.500	355.640
57	60	61	1	180.000	167.360
60	61	62	1	110.000	502.080
60	61	63	1	110.000	502.080
60	61	64	1	110.000	502.080
61	64	65	1	180.000	167.360
64	65	66	1	109.500	355.640
64	65	67	1	109.500	355.640
64	65	68	1	110.000	502.080
65	68	69	1	180.000	167.360
68	69	70	1	110.000	502.080
68	69	71	1	110.000	502.080
69	71	72	1	180.000	167.360
71	72	73	1	110.000	502.080
72	73	74	1	180.000	167.360
73	74	75	1	109.500	355.640
73	74	76	1	109.500	355.640
75	74	76	1	109.500	292.880
70	69	71	1	110.000	502.080
66	65	67	1	109.500	292.880
62	61	64	1	110.000	502.080
58	57	59	1	110.000	502.080
59	57	60	1	109.500	355.640
58	57	60	1	110.000	502.080
67	65	68	1	109.500	355.640
62	61	63	1	110.000	502.080
63	61	64	1	110.000	502.080
66	65	68	1	109.500	355.640
73	74	77	1	110.000	502.080
68	69	78	1	110.000	502.080
69	78	79	1	180.000	167.360
78	79	80	1	110.000	502.080
79	80	81	1	180.000	167.360
80	81	82	1	109.500	355.640
80	81	83	1	109.500	355.640
80	81	84	1	110.000	502.080
71	69	78	1	110.000	502.080
82	81	83	1	109.500	292.880
82	81	83	1	109.500	292.880
70	69	78	1	109.500	355.640
84	81	83	1	109.500	355.640
76	74	77	1	109.500	355.640
75	74	77	1	109.500	355.640
85	88	89	1	180.000	167.360
88	89	90	1	110.000	502.080
88	89	91	1	110.000	502.080
88	89	92	1	110.000	502.080
89	92	93	1	180.000	167.360
92	93	94	1	109.500	355.640
92	93	95	1	109.500	355.640
92	93	96	1	110.000	502.080
93	96	97	1	180.000	167.360
96	97	98	1	110.000	502.080
96	97	99	1	110.000	502.080
97	99	100	1	180.000	167.360
99	100	101	1	110.000	502.080
100	101	102	1	180.000	167.360
101	102	103	1	109.500	355.640
101	102	104	1	109.500	355.640
103	102	104	1	109.500	292.880
98	97	99	1	110.000	502.080
94	93	95	1	109.500	292.880
90	89	92	1	110.000	502.080
86	85	87	1	110.000	502.080
87	85	88	1	109.500	355.640
86	85	88	1	110.000	502.080
95	93	96	1	109.500	355.640
90	89	91	1	110.000	502.080
91	89	92	1	110.000	502.080
94	93	96	1	109.500	355.640
101	102	105	1	110.000	502.080
96	97	106	1	110.000	502.080
97	106	107	1	180.000	167.360
106	107	108	1	110.000	502.080
107	108	109	1	180.000	167.360
108	109	110	1	109.500	355.640
108	109	111	1	109.500	355.640
108	109	112	1	110.000	502.080
99	97	106	1	110.000	502.080
110	109	111	1	109.500	292.880
110	109	111	1	109.500	292.880
98	97	106	1	109.500	355.640
112	109	111	1	109.500	355.640
104	102	105	1	109.500	355.640
103	102	105	1	109.500	355.640
113	116	117	1	180.000	167.360
116	117	118	1	110.000	502.080
116	117	119	1	110.000	502.080
116	117	120	1	110.000	502.080
117	120	121	1	180.000	167.360
120	121	122	1	109.500	355.640
120	121	123	1	109.500	355.640
120	121	124	1	110.000	502.080
121	124	125	1	180.000	167.360
124	125	126	1	110.000	502.080
124	125	127	1	110.000	502.080
125	127	128	1	180.000	167.360
127	128	129	1	110.000	502.080
128	129	130	1	180.000	167.360
129	130	131	1	109.500	355.640
129	130	132	1	109.500	355.640
131	130	132	1	109.500	292.880
126	125	127	1	110.000	502.080
122	121	123	1	109.500	292.880
118	117	120	1	110.000	502.080
114	113	115	1	110.000	502.080
115	113	116	1	109.500	355.640
114	113	116	1	110.000	502.080
123	121	124	1	109.500	355.640
118	117	119	1	110.000	502.080
119	117	120	1	110.000	502.080
122	121	124	1	109.500	355.640
129	130	133	1	110.000	502.080
124	125	134	1	110.000	502.080
125	134	135	1	180.000	167.360
134	135	136	1	110.000	502.080
135	136	137	1	180.000	167.360
136	137	138	1	109.500	355.640
136	137	139	1	109.500	355.640
136	137	140	1	110.000	502.080
127	125	134	1	110.000	502.080
138	137	139	1	109.500	292.880
138	137	139	1	109.500	292.880
126	125	134	1	109.500	355.640
140	137	139	1	109.500	355.640
132	130	133	1	109.500	355.640
131	130	133	1	109.500	355.640
141	144	145	1	180.000	167.360
144	145	146	1	110.000	502.080
144	145	147	1	110.000	502.080
144	145	148	1	110.000	502.080
145	148	149	1	180.000	167.360
148	149	150	1	109.500	355.640
148	149	151	1	109.500	355.640
148	149	152	1	110.000	502.080
149	152	153	1	180.000	167.360
152	153	154	1	110.000	502.080
152	153	155	1	110.000	502.080
153	155	156	1	180.000	167.360
155	156	157	1	110.000	502.080
156	157	158	1	180.000	167.360
157	158	159	1	109.500	355.640
157	158	160	1	109.500	355.640
159	158	160	1	109.500	292.880
154	153	155	1	110.000	502.080
150	149	151	1	109.500	292.880
146	145	148	1	110.000	502.080
142	141	143	1	110.000	502.080
143	141	144	1	109.500	355.640
142	141	144	1	110.000	502.080
151	149	152	1	109.500	355.640
146	145	147	1	110.000	502.080
147	145	148	1	110.000	502.080
150	149	152	1	109.500	355.640
157	158	161	1	110.000	502.080
152	153	162	1	110.000	502.080
153	162	163	1	180.000	167.360
162	163	164	1	110.000	502.080
163	164	165	1	180.000	167.360
164	165	166	1	109.500	355.640
164	165	167	1	109.500	355.640
164	165	168	1	110.000	502.080
155	153	162	1	110.000	502.080
166	165	167	1	109.500	292.880
166	165	167	1	109.500	292.880
154	153	162	1	109.500	355.640
168	165	167	1	109.500	355.640
160	158	161	1	109.500	355.640
159	158	161	1	109.500	355.640
169	172	173	1	180.000	167.360
172	173	174	1	110.000	502.080
172	173	175	1	110.000	502.080
172	173	176	1	110.000	502.080
173	176	177	1	180.000	167.360
176	177	178	1	109.500	355.640
176	177	179	1	109.500	355.640
176	177	180	1	110.000	502.080
177	180	181	1	180.000	167.360
180	181	182	1	110.000	502.080
180	181	183	1	110.000	502.080
181	183	184	1	180.000	167.360
183	184	185	1	110.000	502.080
184	185	186	1	180.000	167.360
185	186	187	1	109.500	355.640
185	186	188	1	109.500	355.640
187	186	188	1	109.500	292.880
182	181	183	1	110.000	502.080
178	177	179	1	109.500	292.880
174	173	176	1	110.000	502.080
170	169	171	1	110.000	502.080
171	169	172	1	109.500	355.640
170	169	172	1	110.000	502.080
179	177	180	1	109.500	355.640
174	173	175	1	110.000	502.080
175	173	176	1	110.000	502.080
178	177	180	1	109.500	355.640
185	186	189	1	110.000	502.080
180	181	190	1	110.000	502.080
181	190	191	1	180.000	167.360
190	191	192	1	110.000	502.080
191	192	193	1	180.000	167.360
192	193	194	1	109.500	355.640
192	193	195	1	109.500	355.640
192	193	196	1	110.000	502.080
183	181	190	1	110.000	502.080
194	193	195	1	109.500	292.880
194	193	195	1	109.500	292.880
182	181	190	1	109.500	355.640
196	193	195	1	109.500	355.640
188	186	189	1	109.500	355.640
187	186	189	1	109.500	355.640
197	200	201	1	180.000	167.360
200	201	202	1	110.000	502.080
200	201	203	1	110.000	502.080
200	201	204	1	110.000	502.080
201	204	205	1	180.000	167.360
204	205	206	1	109.500	355.640
204	205	207	1	109.500	355.640
204	205	208	1	110.000	502.080
205	208	209	1	180.000	167.360
208	209	210	1	110.000	502.080
208	209	211	1	110.000	502.080
209	211	212	1	180.000	167.360
211	212	213	1	110.000	502.080
212	213	214	1	180.000	167.360
213	214	215	1	109.500	355.640
213	214	216	1	109.500	355.640
215	214	216	1	109.500	292.880
210	209	211	1	110.000	502.080
206	205	207	1	109.500	292.880
202	201	204	1	110.000	502.080
198	197	199	1	110.000	502.080
199	197	200	1	109.500	355.640
198	197	200	1	110.000	502.080
207	205	208	1	109.500	355.640
202	201	203	1	110.000	502.080
203	201	204	1	110.000	502.080
206	205	208	1	109.500	355.640
213	214	217	1	110.000	502.080
208	209	218	1	110.000	502.080
209	218	219	1	180.000	167.360
218	219	220	1	110.000	502.080
219	220	221	1	180.000	167.360
220	221	222	1	109.500	355.640
220	221	223	1	109.500	355.640
220	221	224	1	110.000	502.080
211	209	218	1	110.000	502.080
222	221	223	1	109.500	292.880
222	221	223	1	109.500	292.880
210	209	218	1	109.500	355.640
224	221	223	1	109.500	355.640
216	214	217	1	109.500	355.640
215	214	217	1	109.500	355.640
225	228	229	1	180.000	167.360
228	229	230	1	110.000	502.080
228	229	231	1	110.000	502.080
228	229	232	1	110.000	502.080
229	232	233	1	180.000	167.360
232	233	234	1	109.500	355.640
232	233	235	1	109.500	355.640
232	233	236	1	110.000	502.080
233	236	237	1	180.000	167.360
236	237	238	1	110.000	502.080
236	237	239	1	110.000	502.080
237	239	240	1	180.000	167.360
239	240	241	1	110.000	502.080
240	241	242	1	180.000	167.360
241	242	243	1	109.500	355.640
241	242	244	1	109.500	355.640
243	242	244	1	109.500	292.880
238	237	239	1	110.000	502.080
234	233	235	1	109.500	292.880
230	229	232	1	110.000	502.080
226	225	227	1	110.000	502.080
227	225	228	1	109.500	355.640
226	225	228	1	110.000	502.080
235	233	236	1	109.500	355.640
230	229	231	1	110.000	502.080
231	229	232	1	110.000	502.080
234	233	236	1	109.500	355.640
241	242	245	1	110.000	502.080
236	237	246	1	110.000	502.080
237	246	247	1	180.000	167.360
246	247	248	1	110.000	502.080
247	248	249	1	180.000	167.360
248	249	250	1	109.500	355.640
248	249	251	1	109.500	355.640
248	249	252	1	110.000	502.080
239	237	246	1	110.000	502.080
250	249	251	1	109.500	292.880
250	249	251	1	109.500	292.880
238	237	246	1	109.500	355.640
252	249	251	1	109.500	355.640
244	242	245	1	109.500	355.640
243	242	245	1	109.500	355.640
253	256	257	1	180.000	167.360
256	257	258	1	110.000	502.080
256	257	259	1	110.000	502.080
256	257	260	1	110.000	502.080
257	260	261	1	180.000	167.360
260	261	262	1	109.500	355.640
260	261	263	1	109.500	355.640
260	261	264	1	110.000	502.080
261	264	265	1	180.000	167.360
264	265	266	1	110.000	502.080
264	265	267	1	110.000	502.080
265	267	268	1	180.000	167.360
267	268	269	1	110.000	502.080
268	269	270	1	180.000	167.360
269	270	271	1	109.500	355.640
269	270	272	1	109.500	355.640
271	270	272	1	109.500	292.880
266	265	267	1	110.000	502.080
262	261	263	1	109.500	292.880
258	257	260	1	110.000	502.080
254	253	255	1	110.000	502.080
255	253	256	1	109.500	355.640
254	253	256	1	110.000	502.080
263	261	264	1	109.500	355.640
258	257	259	1	110.000	502.080
259	257	260	1	110.000	502.080
262	261	264	1	109.500	355.640
269	270	273	1	110.000	502.080
264	265	274	1	110.000	502.080
265	274	275	1	180.000	167.360
274	275	276	1	110.000	502.080
275	276	277	1	180.000	167.360
276	277	278	1	109.500	355.640
276	277	279	1	109.500	355.640
276	277	280	1	110.000	502.080
267	265	274	1	110.000	502.080
278	277	279	1	109.500	292.880
278	277	279	1	109.500	292.880
266	265	274	1	109.500	355.640
280	277	279	1	109.500	355.640
272	270	273	1	109.500	355.640
271	270	273	1	109.500	355.640
281	284	285	1	180.000	167.360
284	285	286	1	110.000	502.080
284	285	287	1	110.000	502.080
284	285	288	1	110.000	502.080
285	288	289	1	180.000	167.360
288	289	290	1	109.500	355.640
288	289	291	1	109.500	355.640
288	289	292	1	110.000	502.080
289	292	293	1	180.000	167.360
292	293	294	1	110.000	502.080
292	293	295	1	110.000	502.080
293	295	296	1	180.000	167.360
295	296	297	1	110.000	502.080
296	297	298	1	180.000	167.360
297	298	299	1	109.500	355.640
297	298	300	1	109.500	355.640
299	298	300	1	109.500	292.880
294	293	295	1	110.000	502.080
290	289	291	1	109.500	292.880
286	285	288	1	110.000	502.080
282	281	283	1	110.000	502.080
283	281	284	1	109.500	355.640
282	281	284	1	110.000	502.080
291	289	292	1	109.500	355.640
286	285	287	1	110.000	502.080
287	285	288	1	110.000	502.080
290	289	292	1	109.500	355.640
297	298	301	1	110.000	502.080
292	293	302	1	110.000	502.080
293	302	303	1	180.000	167.360
302	303	304	1	110.000	502.080
303	304	305	1	180.000	167.360
304	305	306	1	109.500	355.640
304	305	307	1	109.500	355.640
304	305	308	1	110.000	502.080
295	293	302	1	110.000	502.080
306	305	307	1	109.500	292.880
306	305	307	1	109.500	292.880
294	293	302	1	109.500	355.640
308	305	307	1	109.500	355.640
300	298	301	1	109.500	355.640
299	298	301	1	109.500	355.640
309	312	313	1	180.000	167.360
312	313	314	1	110.000	502.080
312	313	315	1	110.000	502.080
312	313	316	1	110.000	502.080
313	316	317	1	180.000	167.360
316	317	318	1	109.500	355.640
316	317	319	1	109.500	355.640
316	317	320	1	110.000	502.080
317	320	321	1	180.000	167.360
320	321	322	1	110.000	502.080
320	321	323	1	110.000	502.080
321	323	324	1	180.000	167.360
323	324	325	1	110.000	502.080
324	325	326	1	180.000	167.360
325	326	327	1	109.500	355.640
325	326	328	1	109.500	355.640
327	326	328	1	109.500	292.880
322	321	323	1	110.000	502.080
318	317	319	1	109.500	292.880
314	313	316	1	110.000	502.080
310	309	311	1	110.000	502.080
311	309	312	1	109.500	355.640
310	309	312	1	110.000	502.080
319	317	320	1	109.500	355.640
314	313	315	1	110.000	502.080
315	313	316	1	110.000	502.080
318	317	320	1	109.500	355.640
325	326	329	1	110.000	502.080
320	321	330	1	110.000	502.080
321	330	331	1	180.000	167.360
330	331	332	1	110.000	502.080
331	332	333	1	180.000	167.360
332	333	334	1	109.500	355.640
332	333	335	1	109.500	355.640
332	333	336	1	110.000	502.080
323	321	330	1	110.000	502.080
334	333	335	1	109.500	292.880
334	333	335	1	109.500	292.880
322	321	330	1	109.500	355.640
336	333	335	1	109.500	355.640
328	326	329	1	109.500	355.640
327	326	329	1	109.500	355.640
337	340	341	1	180.000	167.360
340	341	342	1	110.000	502.080
340	341	343	1	110.000	502.080
340	341	344	1	110.000	502.080
341	344	345	1	180.000	167.360
344	345	346	1	109.500	355.640
344	345	347	1	109.500	355.640
344	345	348	1	110.000	502.080
345	348	349	1	180.000	167.360
348	349	350	1	110.000	502.080
348	349	351	1	110.000	502.080
349	351	352	1	180.000	167.360
351	352	353	1	110.000	502.080
352	353	354	1	180.000	167.360
353	354	355	1	109.500	355.640
353	354	356	1	109.500	355.640
355	354	356	1	109.500	292.880
350	349	351	1	110.000	502.080
346	345	347	1	109.500	292.880
342	341	344	1	110.000	502.080
338	337	339	1	110.000	502.080
339	337	340	1	109.500	355.640
338	337	340	1	110.000	502.080
347	345	348	1	109.500	355.640
342	341	343	1	110.000	502.080
343	341	344	1	110.000	502.080
346	345	348	1	109.500	355.640
353	354	357	1	110.000	502.080
348	349	358	1	110.000	502.080
349	358	359	1	180.000	167.360
358	359	360	1	110.000	502.080
359	360	361	1	180.000	167.360
360	361	362	1	109.500	355.640
360	361	363	1	109.500	355.640
360	361	364	1	110.000	502.080
351	349	358	1	110.000	502.080
362	361	363	1	109.500	292.880
362	361	363	1	109.500	292.880
350	349	358	1	109.500	355.640
364	361	363	1	109.500	355.640
356	354	357	1	109.500	355.640
355	354	357	1	109.500	355.640
365	368	369	1	180.000	167.360
368	369	370	1	110.000	502.080
368	369	371	1	110.000	502.080
368	369	372	1	110.000	502.080
369	372	373	1	180.000	167.360
372	373	374	1	109.500	355.640
372	373	375	1	109.500	355.640
372	373	376	1	110.000	502.080
373	376	377	1	180.000	167.360
376	377	378	1	110.000	502.080
376	377	379	1	110.000	502.080
377	379	380	1	180.000	167.360
379	380	381	1	110.000	502.080
380	381	382	1	180.000	167.360
381	382	383	1	109.500	355.640
381	382	384	1	109.500	355.640
383	382	384	1	109.500	292.880
378	377	379	1	110.000	502.080
374	373	375	1	109.500	292.880
370	369	372	1	110.000	502.080
366	365	367	1	110.000	502.080
367	365	368	1	109.500	355.640
366	365	368	1	110.000	502.080
375	373	376	1	109.500	355.640
370	369	371	1	110.000	502.080
371	369	372	1	110.000	502.080
374	373	376	1	109.500	355.640
381	382	385	1	110.000	502.080
376	377	386	1	110.000	502.080
377	386	387	1	180.000	167.360
386	387	388	1	110.000	502.080
387	388	389	1	180.000	167.360
388	389	390	1	109.500	355.640
388	389	391	1	109.500	355.640
388	389	392	1	110.000	502.080
379	377	386	1	110.000	502.080
390	389	391	1	109.500	292.880
390	389	391	1	109.500	292.880
378	377	386	1	109.500	355.640
392	389	391	1	109.500	355.640
384	382	385	1	109.500	355.640
383	382	385	1	109.500	355.640
393	396	397	1	180.000	167.360
396	397	398	1	110.000	502.080
396	397	399	1	110.000	502.080
396	397	400	1	110.000	502.080
397	400	401	1	180.000	167.360
400	401	402	1	109.500	355.640
400	401	403	1	109.500	355.640
400	401	404	1	110.000	502.080
401	404	405	1	180.000	167.360
404	405	406	1	110.000	502.080
404	405	407	1	110.000	502.080
405	407	408	1	180.000	167.360
407	408	409	1	110.000	502.080
408	409	410	1	180.000	167.360
409	410	411	1	109.500	355.640
409	410	412	1	109.500	355.640
411	410	412	1	109.500	292.880
406	405	407	1	110.000	502.080
402	401	403	1	109.500	292.880
398	397	400	1	110.000	502.080
394	393	395	1	110.000	502.080
395	393	396	1	109.500	355.640
394	393	396	1	110.000	502.080
403	401	404	1	109.500	355.640
398	397	399	1	110.000	502.080
399	397	400	1	110.000	502.080
402	401	404	1	109.500	355.640
409	410	413	1	110.000	502.080
404	405	414	1	110.000	502.080
405	414	415	1	180.000	167.360
414	415	416	1	110.000	502.080
415	416	417	1	180.000	167.360
416	417	418	1	109.500	355.640
416	417	419	1	109.500	355.640
416	417	420	1	110.000	502.080
407	405	414	1	110.000	502.080
418	417	419	1	109.500	292.880
418	417	419	1	109.500	292.880
406	405	414	1	109.500	355.640
420	417	419	1	109.500	355.640
412	410	413	1	109.500	355.640
411	410	413	1	109.500	355.640
421	424	425	1	180.000	167.360
424	425	426	1	110.000	502.080
424	425	427	1	110.000	502.080
424	425	428	1	110.000	502.080
425	428	429	1	180.000	167.360
428	429	430	1	109.500	355.640
428	429	431	1	109.500	355.640
428	429	432	1	110.000	502.080
429	432	433	1	180.000	167.360
432	433	434	1	110.000	502.080
432	433	435	1	110.000	502.080
433	435	436	1	180.000	167.360
435	436	437	1	110.000	502.080
436	437	438	1	180.000	167.360
437	438	439	1	109.500	355.640
437	438	440	1	109.500	355.640
439	438	440	1	109.500	292.880
434	433	435	1	110.000	502.080
430	429	431	1	109.500	292.880
426	425	428	1	110.000	502.080
422	421	423	1	110.000	502.080
423	421	424	1	109.500	355.640
422	421	424	1	110.000	502.080
431	429	432	1	109.500	355.640
426	425	427	1	110.000	502.080
427	425	428	1	110.000	502.080
430	429	432	1	109.500	355.640
437	438	441	1	110.000	502.080
432	433	442	1	110.000	502.080
433	442	443	1	180.000	167.360
442	443	444	1	110.000	502.080
443	444	445	1	180.000	167.360
444	445	446	1	109.500	355.640
444	445	447	1	109.500	355.640
444	445	448	1	110.000	502.080
435	433	442	1	110.000	502.080
446	445	447	1	109.500	292.880
446	445	447	1	109.500	292.880
434	433	442	1	109.500	355.640
448	445	447	1	109.500	355.640
440	438	441	1	109.500	355.640
439	438	441	1	109.500	355.640
449	452	453	1	180.000	167.360
452	453	454	1	110.000	502.080
452	453	455	1	110.000	502.080
452	453	456	1	110.000	502.080
453	456	457	1	180.000	167.360
456	457	458	1	109.500	355.640
456	457	459	1	109.500	355.640
456	457	460	1	110.000	502.080
457	460	461	1	180.000	167.360
460	461	462	1	110.000	502.080
460	461	463	1	110.000	502.080
461	463	464	1	180.000	167.360
463	464	465	1	110.000	502.080
464	465	466	1	180.000	167.360
465	466	467	1	109.500	355.640
465	466	468	1	109.500	355.640
467	466	468	1	109.500	292.880
462	461	463	1	110.000	502.080
458	457	459	1	109.500	292.880
454	453	456	1	110.000	502.080
450	449	451	1	110.000	502.080
451	449	452	1	109.500	355.640
450	449	452	1	110.000	502.080
459	457	460	1	109.500	355.640
454	453	455	1	110.000	502.080
455	453	456	1	110.000	502.080
458	457	460	1	109.500	355.640
465	466	469	1	110.000	502.080
460	461	470	1	110.000	502.080
461	470	471	1	180.000	167.360
470	471	472	1	110.000	502.080
471	472	473	1	180.000	167.360
472	473	474	1	109.500	355.640
472	473	475	1	109.500	355.640
472	473	476	1	110.000	502.080
463	461	470	1	110.000	502.080
474	473	475	1	109.500	292.880
474	473	475	1	109.500	292.880
462	461	470	1	109.500	355.640
476	473	475	1	109.500	355.640
468	466	469	1	109.500	355.640
467	466	469	1	109.500	355.640
477	480	481	1	180.000	167.360
480	481	482	1	110.000	502.080
480	481	483	1	110.000	502.080
480	481	484	1	110.000	502.080
481	484	485	1	180.000	167.360
484	485	486	1	109.500	355.640
484	485	487	1	109.500	355.640
484	485	488	1	110.000	502.080
485	488	489	1	180.000	167.360
488	489	490	1	110.000	502.080
488	489	491	1	110.000	502.080
489	491	492	1	180.000	167.360
491	492	493	1	110.000	502.080
492	493	494	1	180.000	167.360
493	494	495	1	109.500	355.640
493	494	496	1	109.500	355.640
495	494	496	1	109.500	292.880
490	489	491	1	110.000	502.080
486	485	487	1	109.500	292.880
482	481	484	1	110.000	502.080
478	477	479	1	110.000	502.080
479	477	480	1	109.500	355.640
478	477	480	1	110.000	502.080
487	485	488	1	109.500	355.640
482	481	483	1	110.000	502.080
483	481	484	1	110.000	502.080
486	485	488	1	109.500	355.640
493	494	497	1	110.000	502.080
488	489	498	1	110.000	502.080
489	498	499	1	180.000	167.360
498	499	500	1	110.000	502.080
499	500	501	1	180.000	167.360
500	501	502	1	109.500	355.640
500	501	503	1	109.500	355.640
500	501	504	1	110.000	502.080
491	489	498	1	110.000	502.080
502	501	503	1	109.500	292.880
502	501	503	1	109.500	292.880
490	489	498	1	109.500	355.640
504	501	503	1	109.500	355.640
496	494	497	1	109.500	355.640
495	494	497	1	109.500	355.640
505	508	509	1	180.000	167.360
508	509	510	1	110.000	502.080
508	509	511	1	110.000	502.080
508	509	512	1	110.000	502.080
509	512	513	1	180.000	167.360
512	513	514	1	109.500	355.640
512	513	515	1	109.500	355.640
512	513	516	1	110.000	502.080
513	516	517	1	180.000	167.360
516	517	518	1	110.000	502.080
516	517	519	1	110.000	502.080
517	519	520	1	180.000	167.360
519	520	521	1	110.000	502.080
520	521	522	1	180.000	167.360
521	522	523	1	109.500	355.640
521	522	524	1	109.500	355.640
523	522	524	1	109.500	292.880
518	517	519	1	110.000	502.080
514	513	515	1	109.500	292.880
510	509	512	1	110.000	502.080
506	505	507	1	110.000	502.080
507	505	508	1	109.500	355.640
506	505	508	1	110.000	502.080
515	513	516	1	109.500	355.640
510	509	511	1	110.000	502.080
511	509	512	1	110.000	502.080
514	513	516	1	109.500	355.640
521	522	525	1	110.000	502.080
516	517	526	1	110.000	502.080
517	526	527	1	180.000	167.360
526	527	528	1	110.000	502.080
527	528	529	1	180.000	167.360
528	529	530	1	109.500	355.640
528	529	531	1	109.500	355.640
528	529	532	1	110.000	502.080
519	517	526	1	110.000	502.080
530	529	531	1	109.500	292.880
530	529	531	1	109.500	292.880
518	517	526	1	109.500	355.640
532	529	531	1	109.500	355.640
524	522	525	1	109.500	355.640
523	522	525	1	109.500	355.640
533	536	537	1	180.000	167.360
536	537	538	1	110.000	502.080
536	537	539	1	110.000	502.080
536	537	540	1	110.000	502.080
537	540	541	1	180.000	167.360
540	541	542	1	109.500	355.640
540	541	543	1	109.500	355.640
540	541	544	1	110.000	502.080
541	544	545	1	180.000	167.360
544	545	546	1	110.000	502.080
544	545	547	1	110.000	502.080
545	547	548	1	180.000	167.360
547	548	549	1	110.000	502.080
548	549	550	1	180.000	167.360
549	550	551	1	109.500	355.640
549	550	552	1	109.500	355.640
551	550	552	1	109.500	292.880
546	545	547	1	110.000	502.080
542	541	543	1	109.500	292.880
538	537	540	1	110.000	502.080
534	533	535	1	110.000	502.080
535	533	536	1	109.500	355.640
534	533	536	1	110.000	502.080
543	541	544	1	109.500	355.640
538	537	539	1	110.000	502.080
539	537	540	1	110.000	502.080
542	541	544	1	109.500	355.640
549	550	553	1	110.000	502.080
544	545	554	1	110.000	502.080
545	554	555	1	180.000	167.360
554	555	556	1	110.000	502.080
555	556	557	1	180.000	167.360
556	557	558	1	109.500	355.640
556	557	559	1	109.500	355.640
556	557	560	1	110.000	502.080
547	545	554	1	110.000	502.080
558	557	559	1	109.500	292.880
558	557	559	1	109.500	292.880
546	545	554	1	109.500	355.640
560	557	559	1	109.500	355.640
552	550	553	1	109.500	355.640
551	550	553	1	109.500	355.640
561	564	565	1	180.000	167.360
564	565	566	1	110.000	502.080
564	565	567	1	110.000	502.080
564	565	568	1	110.000	502.080
565	568	569	1	180.000	167.360
568	569	570	1	109.500	355.640
568	569	571	1	109.500	355.640
568	569	572	1	110.000	502.080
569	572	573	1	180.000	167.360
572	573	574	1	110.000	502.080
572	573	575	1	110.000	502.080
573	575	576	1	180.000	167.360
575	576	577	1	110.000	502.080
576	577	578	1	180.000	167.360
577	578	579	1	109.500	355.640
577	578	580	1	109.500	355.640
579	578	580	1	109.500	292.880
574	573	575	1	110.000	502.080
570	569	571	1	109.500	292.880
566	565	568	1	110.000	502.080
562	561	563	1	110.000	502.080
563	561	564	1	109.500	355.640
562	561	564	1	110.000	502.080
571	569	572	1	109.500	355.640
566	565	567	1	110.000	502.080
567	565	568	1	110.000	502.080
570	569	572	1	109.500	355.640
577	578	581	1	110.000	502.080
572	573	582	1	110.000	502.080
573	582	583	1	180.000	167.360
582	583	584	1	110.000	502.080
583	584	585	1	180.000	167.360
584	585	586	1	109.500	355.640
584	585	587	1	109.500	355.640
584	585	588	1	110.000	502.080
575	573	582	1	110.000	502.080
586	585	587	1	109.500	292.880
586	585	587	1	109.500	292.880
574	573	582	1	109.500	355.640
588	585	587	1	109.500	355.640
580	578	581	1	109.500	355.640
579	578	581	1	109.500	355.640
589	592	593	1	180.000	167.360
592	593	594	1	110.000	502.080
592	593	595	1	110.000	502.080
592	593	596	1	110.000	502.080
593	596	597	1	180.000	167.360
596	597	598	1	109.500	355.640
596	597	599	1	109.500	355.640
596	597	600	1	110.000	502.080
597	600	601	1	180.000	167.360
600	601	602	1	110.000	502.080
600	601	603	1	110.000	502.080
601	603	604	1	180.000	167.360
603	604	605	1	110.000	502.080
604	605	606	1	180.000	167.360
605	606	607	1	109.500	355.640
605	606	608	1	109.500	355.640
607	606	608	1	109.500	292.880
602	601	603	1	110.000	502.080
598	597	599	1	109.500	292.880
594	593	596	1	110.000	502.080
590	589	591	1	110.000	502.080
591	589	592	1	109.500	355.640
590	589	592	1	110.000	502.080
599	597	600	1	109.500	355.640
594	593	595	1	110.000	502.080
595	593	596	1	110.000	502.080
598	597	600	1	109.500	355.640
605	606	609	1	110.000	502.080
600	601	610	1	110.000	502.080
601	610	611	1	180.000	167.360
610	611	612	1	110.000	502.080
611	612	613	1	180.000	167.360
612	613	614	1	109.500	355.640
612	613	615	1	109.500	355.640
612	613	616	1	110.000	502.080
603	601	610	1	110.000	502.080
614	613	615	1	109.500	292.880
614	613	615	1	109.500	292.880
602	601	610	1	109.500	355.640
616	613	615	1	109.500	355.640
608	606	609	1	109.500	355.640
607	606	609	1	109.500	355.640
617	620	621	1	180.000	167.360
620	621	622	1	110.000	502.080
620	621	623	1	110.000	502.080
620	621	624	1	110.000	502.080
621	624	625	1	180.000	167.360
624	625	626	1	109.500	355.640
624	625	627	1	109.500	355.640
624	625	628	1	110.000	502.080
625	628	629	1	180.000	167.360
628	629	630	1	110.000	502.080
628	629	631	1	110.000	502.080
629	631	632	1	180.000	167.360
631	632	633	1	110.000	502.080
632	633	634	1	180.000	167.360
633	634	635	1	109.500	355.640
633	634	636	1	109.500	355.640
635	634	636	1	109.500	292.880
630	629	631	1	110.000	502.080
626	625	627	1	109.500	292.880
622	621	624	1	110.000	502.080
618	617	619	1	110.000	502.080
619	617	620	1	109.500	355.640
618	617	620	1	110.000	502.080
627	625	628	1	109.500	355.640
622	621	623	1	110.000	502.080
623	621	624	1	110.000	502.080
626	625	628	1	109.500	355.640
633	634	637	1	110.000	502.080
628	629	638	1	110.000	502.080
629	638	639	1	180.000	167.360
638	639	640	1	110.000	502.080
639	640	641	1	180.000	167.360
640	641	642	1	109.500	355.640
640	641	643	1	109.500	355.640
640	641	644	1	110.000	502.080
631	629	638	1	110.000	502.080
642	641	643	1	109.500	292.880
642	641	643	1	109.500	292.880
630	629	638	1	109.500	355.640
644	641	643	1	109.500	355.640
636	634	637	1	109.500	355.640
635	634	637	1	109.500	355.640
645	648	649	1	180.000	167.360
648	649	650	1	110.000	502.080
648	649	651	1	110.000	502.080
648	649	652	1	110.000	502.080
649	652	653	1	180.000	167.360
652	653	654	1	109.500	355.640
652	653	655	1	109.500	355.640
652	653	656	1	110.000	502.080
653	656	657	1	180.000	167.360
656	657	658	1	110.000	502.080
656	657	659	1	110.000	502.080
657	659	660	1	180.000	167.360
659	660	661	1	110.000	502.080
660	661	662	1	180.000	167.360
661	662	663	1	109.500	355.640
661	662	664	1	109.500	355.640
663	662	664	1	109.500	292.880
658	657	659	1	110.000	502.080
654	653	655	1	109.500	292.880
650	649	652	1	110.000	502.080
646	645	647	1	110.000	502.080
647	645	648	1	109.500	355.640
646	645	648	1	110.000	502.080
655	653	656	1	109.500	355.640
650	649	651	1	110.000	502.080
651	649	652	1	110.000	502.080
654	653	656	1	109.500	355.640
661	662	665	1	110.000	502.080
656	657	666	1	110.000	502.080
657	666	667	1	180.000	167.360
666	667	668	1	110.000	502.080
667	668	669	1	180.000	167.360
668	669	670	1	109.500	355.640
668	669	671	1	109.500	355.640
668	669	672	1	110.000	502.080
659	657	666	1	110.000	502.080
670	669	671	1	109.500	292.880
670	669	671	1	109.500	292.880
658	657	666	1	109.500	355.640
672	669	671	1	109.500	355.640
664	662	665	1	109.500	355.640
663	662	665	1	109.500	355.640
673	676	677	1	180.000	167.360
676	677	678	1	110.000	502.080
676	677	679	1	110.000	502.080
676	677	680	1	110.000	502.080
677	680	681	1	180.000	167.360
680	681	682	1	109.500	355.640
680	681	683	1	109.500	355.640
680	681	684	1	110.000	502.080
681	684	685	1	180.000	167.360
684	685	686	1	110.000	502.080
684	685	687	1	110.000	502.080
685	687	688	1	180.000	167.360
687	688	689	1	110.000	502.080
688	689	690	1	180.000	167.360
689	690	691	1	109.500	355.640
689	690	692	1	109.500	355.640
691	690	692	1	109.500	292.880
686	685	687	1	110.000	502.080
682	681	683	1	109.500	292.880
678	677	680	1	110.000	502.080
674	673	675	1	110.000	502.080
675	673	676	1	109.500	355.640
674	673	676	1	110.000	502.080
683	681	684	1	109.500	355.640
678	677	679	1	110.000	502.080
679	677	680	1	110.000	502.080
682	681	684	1	109.500	355.640
689	690	693	1	110.000	502.080
684	685	694	1	110.000	502.080
685	694	695	1	180.000	167.360
694	695	696	1	110.000	502.080
695	696	697	1	180.000	167.360
696	697	698	1	109.500	355.640
696	697	699	1	109.500	355.640
696	697	700	1	110.000	502.080
687	685	694	1	110.000	502.080
698	697	699	1	109.500	292.880
698	697	699	1	109.500	292.880
686	685	694	1	109.500	355.640
700	697	699	1	109.500	355.640
692	690	693	1	109.500	355.640
691	690	693	1	109.500	355.640
701	704	705	1	180.000	167.360
704	705	706	1	110.000	502.080
704	705	707	1	110.000	502.080
704	705	708	1	110.000	502.080
705	708	709	1	180.000	167.360
708	709	710	1	109.500	355.640
708	709	711	1	109.500	355.640
708	709	712	1	110.000	502.080
709	712	713	1	180.000	167.360
712	713	714	1	110.000	502.080
712	713	715	1	110.000	502.080
713	715	716	1	180.000	167.360
715	716	717	1	110.000	502.080
716	717	718	1	180.000	167.360
717	718	719	1	109.500	355.640
717	718	720	1	109.500	355.640
719	718	720	1	109.500	292.880
714	713	715	1	110.000	502.080
710	709	711	1	109.500	292.880
706	705	708	1	110.000	502.080
702	701	703	1	110.000	502.080
703	701	704	1	109.500	355.640
702	701	704	1	110.000	502.080
711	709	712	1	109.500	355.640
706	705	707	1	110.000	502.080
707	705	708	1	110.000	502.080
710	709	712	1	109.500	355.640
717	718	721	1	110.000	502.080
712	713	722	1	110.000	502.080
713	722	723	1	180.000	167.360
722	723	724	1	110.000	502.080
723	724	725	1	180.000	167.360
724	725	726	1	109.500	355.640
724	725	727	1	109.500	355.640
724	725	728	1	110.000	502.080
715	713	722	1	110.000	502.080
726	725	727	1	109.500	292.880
726	725	727	1	109.500	292.880
714	713	722	1	109.500	355.640
728	725	727	1	109.500	355.640
720	718	721	1	109.500	355.640
719	718	721	1	109.500	355.640
729	732	733	1	180.000	167.360
732	733	734	1	110.000	502.080
732	733	735	1	110.000	502.080
732	733	736	1	110.000	502.080
733	736	737	1	180.000	167.360
736	737	738	1	109.500	355.640
736	737	739	1	109.500	355.640
736	737	740	1	110.000	502.080
737	740	741	1	180.000	167.360
740	741	742	1	110.000	502.080
740	741	743	1	110.000	502.080
741	743	744	1	180.000	167.360
743	744	745	1	110.000	502.080
744	745	746	1	180.000	167.360
745	746	747	1	109.500	355.640
745	746	748	1	109.500	355.640
747	746	748	1	109.500	292.880
742	741	743	1	110.000	502.080
738	737	739	1	109.500	292.880
734	733	736	1	110.000	502.080
730	729	731	1	110.000	502.080
731	729	732	1	109.500	355.640
730	729	732	1	110.000	502.080
739	737	740	1	109.500	355.640
734	733	735	1	110.000	502.080
735	733	736	1	110.000	502.080
738	737	740	1	109.500	355.640
745	746	749	1	110.000	502.080
740	741	750	1	110.000	502.080
741	750	751	1	180.000	167.360
750	751	752	1	110.000	502.080
751	752	753	1	180.000	167.360
752	753	754	1	109.500	355.640
752	753	755	1	109.500	355.640
752	753	756	1	110.000	502.080
743	741	750	1	110.000	502.080
754	753	755	1	109.500	292.880
754	753	755	1	109.500	292.880
742	741	750	1	109.500	355.640
756	753	755	1	109.500	355.640
748	746	749	1	109.500	355.640
747	746	749	1	109.500	355.640
757	760	761	1	180.000	167.360
760	761	762	1	110.000	502.080
760	761	763	1	110.000	502.080
760	761	764	1	110.000	502.080
761	764	765	1	180.000	167.360
764	765	766	1	109.500	355.640
764	765	767	1	109.500	355.640
764	765	768	1	110.000	502.080
765	768	769	1	180.000	167.360
768	769	770	1	110.000	502.080
768	769	771	1	110.000	502.080
769	771	772	1	180.000	167.360
771	772	773	1	110.000	502.080
772	773	774	1	180.000	167.360
773	774	775	1	109.500	355.640
773	774	776	1	109.500	355.640
775	774	776	1	109.500	292.880
770	769	771	1	110.000	502.080
766	765	767	1	109.500	292.880
762	761	764	1	110.000	502.080
758	757	759	1	110.000	502.080
759	757	760	1	109.500	355.640
758	757	760	1	110.000	502.080
767	765	768	1	109.500	355.640
762	761	763	1	110.000	502.080
763	761	764	1	110.000	502.080
766	765	768	1	109.500	355.640
773	774	777	1	110.000	502.080
768	769	778	1	110.000	502.080
769	778	779	1	180.000	167.360
778	779	780	1	110.000	502.080
779	780	781	1	180.000	167.360
780	781	782	1	109.500	355.640
780	781	783	1	109.500	355.640
780	781	784	1	110.000	502.080
771	769	778	1	110.000	502.080
782	781	783	1	109.500	292.880
782	781	783	1	109.500	292.880
770	769	778	1	109.500	355.640
784	781	783	1	109.500	355.640
776	774	777	1	109.500	355.640
775	774	777	1	109.500	355.640
785	788	789	1	180.000	167.360
788	789	790	1	110.000	502.080
788	789	791	1	110.000	502.080
788	789	792	1	110.000	502.080
789	792	793	1	180.000	167.360
792	793	794	1	109.500	355.640
792	793	795	1	109.500	355.640
792	793	796	1	110.000	502.080
793	796	797	1	180.000	167.360
796	797	798	1	110.000	502.080
796	797	799	1	110.000	502.080
797	799	800	1	180.000	167.360
799	800	801	1	110.000	502.080
800	801	802	1	180.000	167.360
801	802	803	1	109.500	355.640
801	802	804	1	109.500	355.640
803	802	804	1	109.500	292.880
798	797	799	1	110.000	502.080
794	793	795	1	109.500	292.880
790	789	792	1	110.000	502.080
786	785	787	1	110.000	502.080
787	785	788	1	109.500	355.640
786	785	788	1	110.000	502.080
795	793	796	1	109.500	355.640
790	789	791	1	110.000	502.080
791	789	792	1	110.000	502.080
794	793	796	1	109.500	355.640
801	802	805	1	110.000	502.080
796	797	806	1	110.000	502.080
797	806	807	1	180.000	167.360
806	807	808	1	110.000	502.080
807	808	809	1	180.000	167.360
808	809	810	1	109.500	355.640
808	809	811	1	109.500	355.640
808	809	812	1	110.000	502.080
799	797	806	1	110.000	502.080
810	809	811	1	109.500	292.880
810	809	811	1	109.500	292.880
798	797	806	1	109.500	355.640
812	809	811	1	109.500	355.640
804	802	805	1	109.500	355.640
803	802	805	1	109.500	355.640
813	816	817	1	180.000	167.360
816	817	818	1	110.000	502.080
816	817	819	1	110.000	502.080
816	817	820	1	110.000	502.080
817	820	821	1	180.000	167.360
820	821	822	1	109.500	355.640
820	821	823	1	109.500	355.640
820	821	824	1	110.000	502.080
821	824	825	1	180.000	167.360
824	825	826	1	110.000	502.080
824	825	827	1	110.000	502.080
825	827	828	1	180.000	167.360
827	828	829	1	110.000	502.080
828	829	830	1	180.000	167.360
829	830	831	1	109.500	355.640
829	830	832	1	109.500	355.640
831	830	832	1	109.500	292.880
826	825	827	1	110.000	502.080
822	821	823	1	109.500	292.880
818	817	820	1	110.000	502.080
814	813	815	1	110.000	502.080
815	813	816	1	109.500	355.640
814	813	816	1	110.000	502.080
823	821	824	1	109.500	355.640
818	817	819	1	110.000	502.080
819	817	820	1	110.000	502.080
822	821	824	1	109.500	355.640
829	830	833	1	110.000	502.080
824	825	834	1	110.000	502.080
825	834	835	1	180.000	167.360
834	835	836	1	110.000	502.080
835	836	837	1	180.000	167.360
836	837	838	1	109.500	355.640
836	837	839	1	109.500	355.640
836	837	840	1	110.000	502.080
827	825	834	1	110.000	502.080
838	837	839	1	109.500	292.880
838	837	839	1	109.500	292.880
826	825	834	1	109.500	355.640
840	837	839	1	109.500	355.640
832	830	833	1	109.500	355.640
831	830	833	1	109.500	355.640
841	844	845	1	180.000	167.360
844	845	846	1	110.000	502.080
844	845	847	1	110.000	502.080
844	845	848	1	110.000	502.080
845	848	849	1	180.000	167.360
848	849	850	1	109.500	355.640
848	849	851	1	109.500	355.640
848	849	852	1	110.000	502.080
849	852	853	1	180.000	167.360
852	853	854	1	110.000	502.080
852	853	855	1	110.000	502.080
853	855	856	1	180.000	167.360
855	856	857	1	110.000	502.080
856	857	858	1	180.000	167.360
857	858	859	1	109.500	355.640
857	858	860	1	109.500	355.640
859	858	860	1	109.500	292.880
854	853	855	1	110.000	502.080
850	849	851	1	109.500	292.880
846	845	848	1	110.000	502.080
842	841	843	1	110.000	502.080
843	841	844	1	109.500	355.640
842	841	844	1	110.000	502.080
851	849	852	1	109.500	355.640
846	845	847	1	110.000	502.080
847	845	848	1	110.000	502.080
850	849	852	1	109.500	355.640
857	858	861	1	110.000	502.080
852	853	862	1	110.000	502.080
853	862	863	1	180.000	167.360
862	863	864	1	110.000	502.080
863	864	865	1	180.000	167.360
864	865	866	1	109.500	355.640
864	865	867	1	109.500	355.640
864	865	868	1	110.000	502.080
855	853	862	1	110.000	502.080
866	865	867	1	109.500	292.880
866	865	867	1	109.500	292.880
854	853	862	1	109.500	355.640
868	865	867	1	109.500	355.640
860	858	861	1	109.500	355.640
859	858	861	1	109.500	355.640
869	872	873	1	180.000	167.360
872	873	874	1	110.000	502.080
872	873	875	1	110.000	502.080
872	873	876	1	110.000	502.080
873	876	877	1	180.000	167.360
876	877	878	1	109.500	355.640
876	877	879	1	109.500	355.640
876	877	880	1	110.000	502.080
877	880	881	1	180.000	167.360
880	881	882	1	110.000	502.080
880	881	883	1	110.000	502.080
881	883	884	1	180.000	167.360
883	884	885	1	110.000	502.080
884	885	886	1	180.000	167.360
885	886	887	1	109.500	355.640
885	886	888	1	109.500	355.640
887	886	888	1	109.500	292.880
882	881	883	1	110.000	502.080
878	877	879	1	109.500	292.880
874	873	876	1	110.000	502.080
870	869	871	1	110.000	502.080
871	869	872	1	109.500	355.640
870	869	872	1	110.000	502.080
879	877	880	1	109.500	355.640
874	873	875	1	110.000	502.080
875	873	876	1	110.000	502.080
878	877	880	1	109.500	355.640
885	886	889	1	110.000	502.080
880	881	890	1	110.000	502.080
881	890	891	1	180.000	167.360
890	891	892	1	110.000	502.080
891	892	893	1	180.000	167.360
892	893	894	1	109.500	355.640
892	893	895	1	109.500	355.640
892	893	896	1	110.000	502.080
883	881	890	1	110.000	502.080
894	893	895	1	109.500	292.880
894	893	895	1	109.500	292.880
882	881	890	1	109.500	355.640
896	893	895	1	109.500	355.640
888	886	889	1	109.500	355.640
887	886	889	1	109.500	355.640
897	900	901	1	180.000	167.360
900	901	902	1	110.000	502.080
900	901	903	1	110.000	502.080
900	901	904	1	110.000	502.080
901	904	905	1	180.000	167.360
904	905	906	1	109.500	355.640
904	905	907	1	109.500	355.640
904	905	908	1	110.000	502.080
905	908	909	1	180.000	167.360
908	909	910	1	110.000	502.080
908	909	911	1	110.000	502.080
909	911	912	1	180.000	167.360
911	912	913	1	110.000	502.080
912	913	914	1	180.000	167.360
913	914	915	1	109.500	355.640
913	914	916	1	109.500	355.640
915	914	916	1	109.500	292.880
910	909	911	1	110.000	502.080
906	905	907	1	109.500	292.880
902	901	904	1	110.000	502.080
898	897	899	1	110.000	502.080
899	897	900	1	109.500	355.640
898	897	900	1	110.000	502.080
907	905	908	1	109.500	355.640
902	901	903	1	110.000	502.080
903	901	904	1	110.000	502.080
906	905	908	1	109.500	355.640
913	914	917	1	110.000	502.080
908	909	918	1	110.000	502.080
909	918	919	1	180.000	167.360
918	919	920	1	110.000	502.080
919	920	921	1	180.000	167.360
920	921	922	1	109.500	355.640
920	921	923	1	109.500	355.640
920	921	924	1	110.000	502.080
911	909	918	1	110.000	502.080
922	921	923	1	109.500	292.880
922	921	923	1	109.500	292.880
910	909	918	1	109.500	355.640
924	921	923	1	109.500	355.640
916	914	917	1	109.500	355.640
915	914	917	1	109.500	355.640
925	928	929	1	180.000	167.360
928	929	930	1	110.000	502.080
928	929	931	1	110.000	502.080
928	929	932	1	110.000	502.080
929	932	933	1	180.000	167.360
932	933	934	1	109.500	355.640
932	933	935	1	109.500	355.640
932	933	936	1	110.000	502.080
933	936	937	1	180.000	167.360
936	937	938	1	110.000	502.080
936	937	939	1	110.000	502.080
937	939	940	1	180.000	167.360
939	940	941	1	110.000	502.080
940	941	942	1	180.000	167.360
941	942	943	1	109.500	355.640
941	942	944	1	109.500	355.640
943	942	944	1	109.500	292.880
938	937	939	1	110.000	502.080
934	933	935	1	109.500	292.880
930	929	932	1	110.000	502.080
926	925	927	1	110.000	502.080
927	925	928	1	109.500	355.640
926	925	928	1	110.000	502.080
935	933	936	1	109.500	355.640
930	929	931	1	110.000	502.080
931	929	932	1	110.000	502.080
934	933	936	1	109.500	355.640
941	942	945	1	110.000	502.080
936	937	946	1	110.000	502.080
937	946	947	1	180.000	167.360
946	947	948	1	110.000	502.080
947	948	949	1	180.000	167.360
948	949	950	1	109.500	355.640
948	949	951	1	109.500	355.640
948	949	952	1	110.000	502.080
939	937	946	1	110.000	502.080
950	949	951	1	109.500	292.880
950	949	951	1	109.500	292.880
938	937	946	1	109.500	355.640
952	949	951	1	109.500	355.640
944	942	945	1	109.500	355.640
943	942	945	1	109.500	355.640
953	956	957	1	180.000	167.360
956	957	958	1	110.000	502.080
956	957	959	1	110.000	502.080
956	957	960	1	110.000	502.080
957	960	961	1	180.000	167.360
960	961	962	1	109.500	355.640
960	961	963	1	109.500	355.640
960	961	964	1	110.000	502.080
961	964	965	1	180.000	167.360
964	965	966	1	110.000	502.080
964	965	967	1	110.000	502.080
965	967	968	1	180.000	167.360
967	968	969	1	110.000	502.080
968	969	970	1	180.000	167.360
969	970	971	1	109.500	355.640
969	970	972	1	109.500	355.640
971	970	972	1	109.500	292.880
966	965	967	1	110.000	502.080
962	961	963	1	109.500	292.880
958	957	960	1	110.000	502.080
954	953	955	1	110.000	502.080
955	953	956	1	109.500	355.640
954	953	956	1	110.000	502.080
963	961	964	1	109.500	355.640
958	957	959	1	110.000	502.080
959	957	960	1	110.000	502.080
962	961	964	1	109.500	355.640
969	970	973	1	110.000	502.080
964	965	974	1	110.000	502.080
965	974	975	1	180.000	167.360
974	975	976	1	110.000	502.080
975	976	977	1	180.000	167.360
976	977	978	1	109.500	355.640
976	977	979	1	109.500	355.640
976	977	980	1	110.000	502.080
967	965	974	1	110.000	502.080
978	977	979	1	109.500	292.880
978	977	979	1	109.500	292.880
966	965	974	1	109.500	355.640
980	977	979	1	109.500	355.640
972	970	973	1	109.500	355.640
971	970	973	1	109.500	355.640
981	984	985	1	180.000	167.360
984	985	986	1	110.000	502.080
984	985	987	1	110.000	502.080
984	985	988	1	110.000	502.080
985	988	989	1	180.000	167.360
988	989	990	1	109.500	355.640
988	989	991	1	109.500	355.640
988	989	992	1	110.000	502.080
989	992	993	1	180.000	167.360
992	993	994	1	110.000	502.080
992	993	995	1	110.000	502.080
993	995	996	1	180.000	167.360
995	996	997	1	110.000	502.080
996	997	998	1	180.000	167.360
997	998	999	1	109.500	355.640
997	998	1000	1	109.500	355.640
999	998	1000	1	109.500	292.880
994	993	995	1	110.000	502.080
990	989	991	1	109.500	292.880
986	985	988	1	110.000	502.080
982	981	983	1	110.000	502.080
983	981	984	1	109.500	355.640
982	981	984	1	110.000	502.080
991	989	992	1	109.500	355.640
986	985	987	1	110.000	502.080
987	985	988	1	110.000	502.080
990	989	992	1	109.500	355.640
997	998	1001	1	110.000	502.080
992	993	1002	1	110.000	502.080
993	1002	1003	1	180.000	167.360
1002	1003	1004	1	110.000	502.080
1003	1004	1005	1	180.000	167.360
1004	1005	1006	1	109.500	355.640
1004	1005	1007	1	109.500	355.640
1004	1005	1008	1	110.000	502.080
995	993	1002	1	110.000	502.080
1006	1005	1007	1	109.500	292.880
1006	1005	1007	1	109.500	292.880
994	993	1002	1	109.500	355.640
1008	1005	1007	1	109.500	355.640
1000	998	1001	1	109.500	355.640
999	998	1001	1	109.500	355.640
1009	1012	1013	1	180.000	167.360
1012	1013	1014	1	110.000	502.080
1012	1013	1015	1	110.000	502.080
1012	1013	1016	1	110.000	502.080
1013	1016	1017	1	180.000	167.360
1016	1017	1018	1	109.500	355.640
1016	1017	1019	1	109.500	355.640
1016	1017	1020	1	110.000	502.080
1017	1020	1021	1	180.000	167.360
1020	1021	1022	1	110.000	502.080
1020	1021	1023	1	110.000	502.080
1021	1023	1024	1	180.000	167.360
1023	1024	1025	1	110.000	502.080
1024	1025	1026	1	180.000	167.360
1025	1026	1027	1	109.500	355.640
1025	1026	1028	1	109.500	355.640
1027	1026	1028	1	109.500	292.880
1022	1021	1023	1	110.000	502.080
1018	1017	1019	1	109.500	292.880
1014	1013	1016	1	110.000	502.080
1010	1009	1011	1	110.000	502.080
1011	1009	1012	1	109.500	355.640
1010	1009	1012	1	110.000	502.080
1019	1017	1020	1	109.500	355.640
1014	1013	1015	1	110.000	502.080
1015	1013	1016	1	110.000	502.080
1018	1017	1020	1	109.500	355.640
1025	1026	1029	1	110.000	502.080
1020	1021	1030	1	110.000	502.080
1021	1030	1031	1	180.000	167.360
1030	1031	1032	1	110.000	502.080
1031	1032	1033	1	180.000	167.360
1032	1033	1034	1	109.500	355.640
1032	1033	1035	1	109.500	355.640
1032	1033	1036	1	110.000	502.080
1023	1021	1030	1	110.000	502.080
1034	1033	1035	1	109.500	292.880
1034	1033	1035	1	109.500	292.880
1022	1021	1030	1	109.500	355.640
1036	1033	1035	1	109.500	355.640
1028	1026	1029	1	109.500	355.640
1027	1026	1029	1	109.500	355.640
1037	1040	1041	1	180.000	167.360
1040	1041	1042	1	110.000	502.080
1040	1041	1043	1	110.000	502.080
1040	1041	1044	1	110.000	502.080
1041	1044	1045	1	180.000	167.360
1044	1045	1046	1	109.500	355.640
1044	1045	1047	1	109.500	355.640
1044	1045	1048	1	110.000	502.080
1045	1048	1049	1	180.000	167.360
1048	1049	1050	1	110.000	502.080
1048	1049	1051	1	110.000	502.080
1049	1051	1052	1	180.000	167.360
1051	1052	1053	1	110.000	502.080
1052	1053	1054	1	180.000	167.360
1053	1054	1055	1	109.500	355.640
1053	1054	1056	1	109.500	355.640
1055	1054	1056	1	109.500	292.880
1050	1049	1051	1	110.000	502.080
1046	1045	1047	1	109.500	292.880
1042	1041	1044	1	110.000	502.080
1038	1037	1039	1	110.000	502.080
1039	1037	1040	1	109.500	355.640
1038	1037	1040	1	110.000	502.080
1047	1045	1048	1	109.500	355.640
1042	1041	1043	1	110.000	502.080
1043	1041	1044	1	110.000	502.080
1046	1045	1048	1	109.500	355.640
1053	1054	1057	1	110.000	502.080
1048	1049	1058	1	110.000	502.080
1049	1058	1059	1	180.000	167.360
1058	1059	1060	1	110.000	502.080
1059	1060	1061	1	180.000	167.360
1060	1061	1062	1	109.500	355.640
1060	1061	1063	1	109.500	355.640
1060	1061	1064	1	110.000	502.080
1051	1049	1058	1	110.000	502.080
1062	1061	1063	1	109.500	292.880
1062	1061	1063	1	109.500	292.880
1050	1049	1058	1	109.500	355.640
1064	1061	1063	1	109.500	355.640
1056	1054	1057	1	109.500	355.640
1055	1054	1057	1	109.500	355.640
1065	1068	1069	1	180.000	167.360
1068	1069	1070	1	110.000	502.080
1068	1069	1071	1	110.000	502.080
1068	1069	1072	1	110.000	502.080
1069	1072	1073	1	180.000	167.360
1072	1073	1074	1	109.500	355.640
1072	1073	1075	1	109.500	355.640
1072	1073	1076	1	110.000	502.080
1073	1076	1077	1	180.000	167.360
1076	1077	1078	1	110.000	502.080
1076	1077	1079	1	110.000	502.080
1077	1079	1080	1	180.000	167.360
1079	1080	1081	1	110.000	502.080
1080	1081	1082	1	180.000	167.360
1081	1082	1083	1	109.500	355.640
1081	1082	1084	1	109.500	355.640
1083	1082	1084	1	109.500	292.880
1078	1077	1079	1	110.000	502.080
1074	1073	1075	1	109.500	292.880
1070	1069	1072	1	110.000	502.080
1066	1065	1067	1	110.000	502.080
1067	1065	1068	1	109.500	355.640
1066	1065	1068	1	110.000	502.080
1075	1073	1076	1	109.500	355.640
1070	1069	1071	1	110.000	502.080
1071	1069	1072	1	110.000	502.080
1074	1073	1076	1	109.500	355.640
1081	1082	1085	1	110.000	502.080
1076	1077	1086	1	110.000	502.080
1077	1086	1087	1	180.000	167.360
1086	1087	1088	1	110.000	502.080
1087	1088	1089	1	180.000	167.360
1088	1089	1090	1	109.500	355.640
1088	1089	1091	1	109.500	355.640
1088	1089	1092	1	110.000	502.080
1079	1077	1086	1	110.000	502.080
1090	1089	1091	1	109.500	292.880
1090	1089	1091	1	109.500	292.880
1078	1077	1086	1	109.500	355.640
1092	1089	1091	1	109.500	355.640
1084	1082	1085	1	109.500	355.640
1083	1082	1085	1	109.500	355.640
1093	1096	1097	1	180.000	167.360
1096	1097	1098	1	110.000	502.080
1096	1097	1099	1	110.000	502.080
1096	1097	1100	1	110.000	502.080
1097	1100	1101	1	180.000	167.360
1100	1101	1102	1	109.500	355.640
1100	1101	1103	1	109.500	355.640
1100	1101	1104	1	110.000	502.080
1101	1104	1105	1	180.000	167.360
1104	1105	1106	1	110.000	502.080
1104	1105	1107	1	110.000	502.080
1105	1107	1108	1	180.000	167.360
1107	1108	1109	1	110.000	502.080
1108	1109	1110	1	180.000	167.360
1109	1110	1111	1	109.500	355.640
1109	1110	1112	1	109.500	355.640
1111	1110	1112	1	109.500	292.880
1106	1105	1107	1	110.000	502.080
1102	1101	1103	1	109.500	292.880
1098	1097	1100	1	110.000	502.080
1094	1093	1095	1	110.000	502.080
1095	1093	1096	1	109.500	355.640
1094	1093	1096	1	110.000	502.080
1103	1101	1104	1	109.500	355.640
1098	1097	1099	1	110.000	502.080
1099	1097	1100	1	110.000	502.080
1102	1101	1104	1	109.500	355.640
1109	1110	1113	1	110.000	502.080
1104	1105	1114	1	110.000	502.080
1105	1114	1115	1	180.000	167.360
1114	1115	1116	1	110.000	502.080
1115	1116	1117	1	180.000	167.360
1116	1117	1118	1	109.500	355.640
1116	1117	1119	1	109.500	355.640
1116	1117	1120	1	110.000	502.080
1107	1105	1114	1	110.000	502.080
1118	1117	1119	1	109.500	292.880
1118	1117	1119	1	109.500	292.880
1106	1105	1114	1	109.500	355.640
1120	1117	1119	1	109.500	355.640
1112	1110	1113	1	109.500	355.640
1111	1110	1113	1	109.500	355.640
1121	1124	1125	1	180.000	167.360
1124	1125	1126	1	110.000	502.080
1124	1125	1127	1	110.000	502.080
1124	1125	1128	1	110.000	502.080
1125	1128	1129	1	180.000	167.360
1128	1129	1130	1	109.500	355.640
1128	1129	1131	1	109.500	355.640
1128	1129	1132	1	110.000	502.080
1129	1132	1133	1	180.000	167.360
1132	1133	1134	1	110.000	502.080
1132	1133	1135	1	110.000	502.080
1133	1135	1136	1	180.000	167.360
1135	1136	1137	1	110.000	502.080
1136	1137	1138	1	180.000	167.360
1137	1138	1139	1	109.500	355.640
1137	1138	1140	1	109.500	355.640
1139	1138	1140	1	109.500	292.880
1134	1133	1135	1	110.000	502.080
1130	1129	1131	1	109.500	292.880
1126	1125	1128	1	110.000	502.080
1122	1121	1123	1	110.000	502.080
1123	1121	1124	1	109.500	355.640
1122	1121	1124	1	110.000	502.080
1131	1129	1132	1	109.500	355.640
1126	1125	1127	1	110.000	502.080
1127	1125	1128	1	110.000	502.080
1130	1129	1132	1	109.500	355.640
1137	1138	1141	1	110.000	502.080
1132	1133	1142	1	110.000	502.080
1133	1142	1143	1	180.000	167.360
1142	1143	1144	1	110.000	502.080
1143	1144	1145	1	180.000	167.360
1144	1145	1146	1	109.500	355.640
1144	1145	1147	1	109.500	355.640
1144	1145	1148	1	110.000	502.080
1135	1133	1142	1	110.000	502.080
1146	1145	1147	1	109.500	292.880
1146	1145	1147	1	109.500	292.880
1134	1133	1142	1	109.500	355.640
1148	1145	1147	1	109.500	355.640
1140	1138	1141	1	109.500	355.640
1139	1138	1141	1	109.500	355.640
1149	1152	1153	1	180.000	167.360
1152	1153	1154	1	110.000	502.080
1152	1153	1155	1	110.000	502.080
1152	1153	1156	1	110.000	502.080
1153	1156	1157	1	180.000	167.360
1156	1157	1158	1	109.500	355.640
1156	1157	1159	1	109.500	355.640
1156	1157	1160	1	110.000	502.080
1157	1160	1161	1	180.000	167.360
1160	1161	1162	1	110.000	502.080
1160	1161	1163	1	110.000	502.080
1161	1163	1164	1	180.000	167.360
1163	1164	1165	1	110.000	502.080
1164	1165	1166	1	180.000	167.360
1165	1166	1167	1	109.500	355.640
1165	1166	1168	1	109.500	355.640
1167	1166	1168	1	109.500	292.880
1162	1161	1163	1	110.000	502.080
1158	1157	1159	1	109.500	292.880
1154	1153	1156	1	110.000	502.080
1150	1149	1151	1	110.000	502.080
1151	1149	1152	1	109.500	355.640
1150	1149	1152	1	110.000	502.080
1159	1157	1160	1	109.500	355.640
1154	1153	1155	1	110.000	502.080
1155	1153	1156	1	110.000	502.080
1158	1157	1160	1	109.500	355.640
1165	1166	1169	1	110.000	502.080
1160	1161	1170	1	110.000	502.080
1161	1170	1171	1	180.000	167.360
1170	1171	1172	1	110.000	502.080
1171	1172	1173	1	180.000	167.360
1172	1173	1174	1	109.500	355.640
1172	1173	1175	1	109.500	355.640
1172	1173	1176	1	110.000	502.080
1163	1161	1170	1	110.000	502.080
1174	1173	1175	1	109.500	292.880
1174	1173	1175	1	109.500	292.880
1162	1161	1170	1	109.500	355.640
1176	1173	1175	1	109.500	355.640
1168	1166	1169	1	109.500	355.640
1167	1166	1169	1	109.500	355.640
1177	1180	1181	1	180.000	167.360
1180	1181	1182	1	110.000	502.080
1180	1181	1183	1	110.000	502.080
1180	1181	1184	1	110.000	502.080
1181	1184	1185	1	180.000	167.360
1184	1185	1186	1	109.500	355.640
1184	1185	1187	1	109.500	355.640
1184	1185	1188	1	110.000	502.080
1185	1188	1189	1	180.000	167.360
1188	1189	1190	1	110.000	502.080
1188	1189	1191	1	110.000	502.080
1189	1191	1192	1	180.000	167.360
1191	1192	1193	1	110.000	502.080
1192	1193	1194	1	180.000	167.360
1193	1194	1195	1	109.500	355.640
1193	1194	1196	1	109.500	355.640
1195	1194	1196	1	109.500	292.880
1190	1189	1191	1	110.000	502.080
1186	1185	1187	1	109.500	292.880
1182	1181	1184	1	110.000	502.080
1178	1177	1179	1	110.000	502.080
1179	1177	1180	1	109.500	355.640
1178	1177	1180	1	110.000	502.080
1187	1185	1188	1	109.500	355.640
1182	1181	1183	1	110.000	502.080
1183	1181	1184	1	110.000	502.080
1186	1185	1188	1	109.500	355.640
1193	1194	1197	1	110.000	502.080
1188	1189	1198	1	110.000	502.080
1189	1198	1199	1	180.000	167.360
1198	1199	1200	1	110.000	502.080
1199	1200	1201	1	180.000	167.360
1200	1201	1202	1	109.500	355.640
1200	1201	1203	1	109.500	355.640
1200	1201	1204	1	110.000	502.080
1191	1189	1198	1	110.000	502.080
1202	1201	1203	1	109.500	292.880
1202	1201	1203	1	109.500	292.880
1190	1189	1198	1	109.500	355.640
1204	1201	1203	1	109.500	355.640
1196	1194	1197	1	109.500	355.640
1195	1194	1197	1	109.500	355.640
1205	1208	1209	1	180.000	167.360
1208	1209	1210	1	110.000	502.080
1208	1209	1211	1	110.000	502.080
1208	1209	1212	1	110.000	502.080
1209	1212	1213	1	180.000	167.360
1212	1213	1214	1	109.500	355.640
1212	1213	1215	1	109.500	355.640
1212	1213	1216	1	110.000	502.080
1213	1216	1217	1	180.000	167.360
1216	1217	1218	1	110.000	502.080
1216	1217	1219	1	110.000	502.080
1217	1219	1220	1	180.000	167.360
1219	1220	1221	1	110.000	502.080
1220	1221	1222	1	180.000	167.360
1221	1222	1223	1	109.500	355.640
1221	1222	1224	1	109.500	355.640
1223	1222	1224	1	109.500	292.880
1218	1217	1219	1	110.000	502.080
1214	1213	1215	1	109.500	292.880
1210	1209	1212	1	110.000	502.080
1206	1205	1207	1	110.000	502.080
1207	1205	1208	1	109.500	355.640
1206	1205	1208	1	110.000	502.080
1215	1213	1216	1	109.500	355.640
1210	1209	1211	1	110.000	502.080
1211	1209	1212	1	110.000	502.080
1214	1213	1216	1	109.500	355.640
1221	1222	1225	1	110.000	502.080
1216	1217	1226	1	110.000	502.080
1217	1226	1227	1	180.000	167.360
1226	1227	1228	1	110.000	502.080
1227	1228	1229	1	180.000	167.360
1228	1229	1230	1	109.500	355.640
1228	1229	1231	1	109.500	355.640
1228	1229	1232	1	110.000	502.080
1219	1217	1226	1	110.000	502.080
1230	1229	1231	1	109.500	292.880
1230	1229	1231	1	109.500	292.880
1218	1217	1226	1	109.500	355.640
1232	1229	1231	1	109.500	355.640
1224	1222	1225	1	109.500	355.640
1223	1222	1225	1	109.500	355.640
1233	1236	1237	1	180.000	167.360
1236	1237	1238	1	110.000	502.080
1236	1237	1239	1	110.000	502.080
1236	1237	1240	1	110.000	502.080
1237	1240	1241	1	180.000	167.360
1240	1241	1242	1	109.500	355.640
1240	1241	1243	1	109.500	355.640
1240	1241	1244	1	110.000	502.080
1241	1244	1245	1	180.000	167.360
1244	1245	1246	1	110.000	502.080
1244	1245	1247	1	110.000	502.080
1245	1247	1248	1	180.000	167.360
1247	1248	1249	1	110.000	502.080
1248	1249	1250	1	180.000	167.360
1249	1250	1251	1	109.500	355.640
1249	1250	1252	1	109.500	355.640
1251	1250	1252	1	109.500	292.880
1246	1245	1247	1	110.000	502.080
1242	1241	1243	1	109.500	292.880
1238	1237	1240	1	110.000	502.080
1234	1233	1235	1	110.000	502.080
1235	1233	1236	1	109.500	355.640
1234	1233	1236	1	110.000	502.080
1243	1241	1244	1	109.500	355.640
1238	1237	1239	1	110.000	502.080
1239	1237	1240	1	110.000	502.080
1242	1241	1244	1	109.500	355.640
1249	1250	1253	1	110.000	502.080
1244	1245	1254	1	110.000	502.080
1245	1254	1255	1	180.000	167.360
1254	1255	1256	1	110.000	502.080
1255	1256	1257	1	180.000	167.360
1256	1257	1258	1	109.500	355.640
1256	1257	1259	1	109.500	355.640
1256	1257	1260	1	110.000	502.080
1247	1245	1254	1	110.000	502.080
1258	1257	1259	1	109.500	292.880
1258	1257	1259	1	109.500	292.880
1246	1245	1254	1	109.500	355.640
1260	1257	1259	1	109.500	355.640
1252	1250	1253	1	109.500	355.640
1251	1250	1253	1	109.500	355.640
1261	1264	1265	1	180.000	167.360
1264	1265	1266	1	110.000	502.080
1264	1265	1267	1	110.000	502.080
1264	1265	1268	1	110.000	502.080
1265	1268	1269	1	180.000	167.360
1268	1269	1270	1	109.500	355.640
1268	1269	1271	1	109.500	355.640
1268	1269	1272	1	110.000	502.080
1269	1272	1273	1	180.000	167.360
1272	1273	1274	1	110.000	502.080
1272	1273	1275	1	110.000	502.080
1273	1275	1276	1	180.000	167.360
1275	1276	1277	1	110.000	502.080
1276	1277	1278	1	180.000	167.360
1277	1278	1279	1	109.500	355.640
1277	1278	1280	1	109.500	355.640
1279	1278	1280	1	109.500	292.880
1274	1273	1275	1	110.000	502.080
1270	1269	1271	1	109.500	292.880
1266	1265	1268	1	110.000	502.080
1262	1261	1263	1	110.000	502.080
1263	1261	1264	1	109.500	355.640
1262	1261	1264	1	110.000	502.080
1271	1269	1272	1	109.500	355.640
1266	1265	1267	1	110.000	502.080
1267	1265	1268	1	110.000	502.080
1270	1269	1272	1	109.500	355.640
1277	1278	1281	1	110.000	502.080
1272	1273	1282	1	110.000	502.080
1273	1282	1283	1	180.000	167.360
1282	1283	1284	1	110.000	502.080
1283	1284	1285	1	180.000	167.360
1284	1285	1286	1	109.500	355.640
1284	1285	1287	1	109.500	355.640
1284	1285	1288	1	110.000	502.080
1275	1273	1282	1	110.000	502.080
1286	1285	1287	1	109.500	292.880
1286	1285	1287	1	109.500	292.880
1274	1273	1282	1	109.500	355.640
1288	1285	1287	1	109.500	355.640
1280	1278	1281	1	109.500	355.640
1279	1278	1281	1	109.500	355.640
1289	1292	1293	1	180.000	167.360
1292	1293	1294	1	110.000	502.080
1292	1293	1295	1	110.000	502.080
1292	1293	1296	1	110.000	502.080
1293	1296	1297	1	180.000	167.360
1296	1297	1298	1	109.500	355.640
1296	1297	1299	1	109.500	355.640
1296	1297	1300	1	110.000	502.080
1297	1300	1301	1	180.000	167.360
1300	1301	1302	1	110.000	502.080
1300	1301	1303	1	110.000	502.080
1301	1303	1304	1	180.000	167.360
1303	1304	1305	1	110.000	502.080
1304	1305	1306	1	180.000	167.360
1305	1306	1307	1	109.500	355.640
1305	1306	1308	1	109.500	355.640
1307	1306	1308	1	109.500	292.880
1302	1301	1303	1	110.000	502.080
1298	1297	1299	1	109.500	292.880
1294	1293	1296	1	110.000	502.080
1290	1289	1291	1	110.000	502.080
1291	1289	1292	1	109.500	355.640
1290	1289	1292	1	110.000	502.080
1299	1297	1300	1	109.500	355.640
1294	1293	1295	1	110.000	502.080
1295	1293	1296	1	110.000	502.080
1298	1297	1300	1	109.500	355.640
1305	1306	1309	1	110.000	502.080
1300	1301	1310	1	110.000	502.080
1301	1310	1311	1	180.000	167.360
1310	1311	1312	1	110.000	502.080
1311	1312	1313	1	180.000	167.360
1312	1313	1314	1	109.500	355.640
1312	1313	1315	1	109.500	355.640
1312	1313	1316	1	110.000	502.080
1303	1301	1310	1	110.000	502.080
1314	1313	1315	1	109.500	292.880
1314	1313	1315	1	109.500	292.880
1302	1301	1310	1	109.500	355.640
1316	1313	1315	1	109.500	355.640
1308	1306	1309	1	109.500	355.640
1307	1306	1309	1	109.500	355.640
1317	1320	1321	1	180.000	167.360
1320	1321	1322	1	110.000	502.080
1320	1321	1323	1	110.000	502.080
1320	1321	1324	1	110.000	502.080
1321	1324	1325	1	180.000	167.360
1324	1325	1326	1	109.500	355.640
1324	1325	1327	1	109.500	355.640
1324	1325	1328	1	110.000	502.080
1325	1328	1329	1	180.000	167.360
1328	1329	1330	1	110.000	502.080
1328	1329	1331	1	110.000	502.080
1329	1331	1332	1	180.000	167.360
1331	1332	1333	1	110.000	502.080
1332	1333	1334	1	180.000	167.360
1333	1334	1335	1	109.500	355.640
1333	1334	1336	1	109.500	355.640
1335	1334	1336	1	109.500	292.880
1330	1329	1331	1	110.000	502.080
1326	1325	1327	1	109.500	292.880
1322	1321	1324	1	110.000	502.080
1318	1317	1319	1	110.000	502.080
1319	1317	1320	1	109.500	355.640
1318	1317	1320	1	110.000	502.080
1327	1325	1328	1	109.500	355.640
1322	1321	1323	1	110.000	502.080
1323	1321	1324	1	110.000	502.080
1326	1325	1328	1	109.500	355.640
1333	1334	1337	1	110.000	502.080
1328	1329	1338	1	110.000	502.080
1329	1338	1339	1	180.000	167.360
1338	1339	1340	1	110.000	502.080
1339	1340	1341	1	180.000	167.360
1340	1341	1342	1	109.500	355.640
1340	1341	1343	1	109.500	355.640
1340	1341	1344	1	110.000	502.080
1331	1329	1338	1	110.000	502.080
1342	1341	1343	1	109.500	292.880
1342	1341	1343	1	109.500	292.880
1330	1329	1338	1	109.500	355.640
1344	1341	1343	1	109.500	355.640
1336	1334	1337	1	109.500	355.640
1335	1334	1337	1	109.500	355.640
1345	1348	1349	1	180.000	167.360
1348	1349	1350	1	110.000	502.080
1348	1349	1351	1	110.000	502.080
1348	1349	1352	1	110.000	502.080
1349	1352	1353	1	180.000	167.360
1352	1353	1354	1	109.500	355.640
1352	1353	1355	1	109.500	355.640
1352	1353	1356	1	110.000	502.080
1353	1356	1357	1	180.000	167.360
1356	1357	1358	1	110.000	502.080
1356	1357	1359	1	110.000	502.080
1357	1359	1360	1	180.000	167.360
1359	1360	1361	1	110.000	502.080
1360	1361	1362	1	180.000	167.360
1361	1362	1363	1	109.500	355.640
1361	1362	1364	1	109.500	355.640
1363	1362	1364	1	109.500	292.880
1358	1357	1359	1	110.000	502.080
1354	1353	1355	1	109.500	292.880
1350	1349	1352	1	110.000	502.080
1346	1345	1347	1	110.000	502.080
1347	1345	1348	1	109.500	355.640
1346	1345	1348	1	110.000	502.080
1355	1353	1356	1	109.500	355.640
1350	1349	1351	1	110.000	502.080
1351	1349	1352	1	110.000	502.080
1354	1353	1356	1	109.500	355.640
1361	1362	1365	1	110.000	502.080
1356	1357	1366	1	110.000	502.080
1357	1366	1367	1	180.000	167.360
1366	1367	1368	1	110.000	502.080
1367	1368	1369	1	180.000	167.360
1368	1369	1370	1	109.500	355.640
1368	1369	1371	1	109.500	355.640
1368	1369	1372	1	110.000	502.080
1359	1357	1366	1	110.000	502.080
1370	1369	1371	1	109.500	292.880
1370	1369	1371	1	109.500	292.880
1358	1357	1366	1	109.500	355.640
1372	1369	1371	1	109.500	355.640
1364	1362	1365	1	109.500	355.640
1363	1362	1365	1	109.500	355.640
1373	1376	1377	1	180.000	167.360
1376	1377	1378	1	110.000	502.080
1376	1377	1379	1	110.000	502.080
1376	1377	1380	1	110.000	502.080
1377	1380	1381	1	180.000	167.360
1380	1381	1382	1	109.500	355.640
1380	1381	1383	1	109.500	355.640
1380	1381	1384	1	110.000	502.080
1381	1384	1385	1	180.000	167.360
1384	1385	1386	1	110.000	502.080
1384	1385	1387	1	110.000	502.080
1385	1387	1388	1	180.000	167.360
1387	1388	1389	1	110.000	502.080
1388	1389	1390	1	180.000	167.360
1389	1390	1391	1	109.500	355.640
1389	1390	1392	1	109.500	355.640
1391	1390	1392	1	109.500	292.880
1386	1385	1387	1	110.000	502.080
1382	1381	1383	1	109.500	292.880
1378	1377	1380	1	110.000	502.080
1374	1373	1375	1	110.000	502.080
1375	1373	1376	1	109.500	355.640
1374	1373	1376	1	110.000	502.080
1383	1381	1384	1	109.500	355.640
1378	1377	1379	1	110.000	502.080
1379	1377	1380	1	110.000	502.080
1382	1381	1384	1	109.500	355.640
1389	1390	1393	1	110.000	502.080
1384	1385	1394	1	110.000	502.080
1385	1394	1395	1	180.000	167.360
1394	1395	1396	1	110.000	502.080
1395	1396	1397	1	180.000	167.360
1396	1397	1398	1	109.500	355.640
1396	1397	1399	1	109.500	355.640
1396	1397	1400	1	110.000	502.080
1387	1385	1394	1	110.000	502.080
1398	1397	1399	1	109.500	292.880
1398	1397	1399	1	109.500	292.880
1386	1385	1394	1	109.500	355.640
1400	1397	1399	1	109.500	355.640
1392	1390	1393	1	109.500	355.640
1391	1390	1393	1	109.500	355.640
1401	1404	1405	1	180.000	167.360
1404	1405	1406	1	110.000	502.080
1404	1405	1407	1	110.000	502.080
1404	1405	1408	1	110.000	502.080
1405	1408	1409	1	180.000	167.360
1408	1409	1410	1	109.500	355.640
1408	1409	1411	1	109.500	355.640
1408	1409	1412	1	110.000	502.080
1409	1412	1413	1	180.000	167.360
1412	1413	1414	1	110.000	502.080
1412	1413	1415	1	110.000	502.080
1413	1415	1416	1	180.000	167.360
1415	1416	1417	1	110.000	502.080
1416	1417	1418	1	180.000	167.360
1417	1418	1419	1	109.500	355.640
1417	1418	1420	1	109.500	355.640
1419	1418	1420	1	109.500	292.880
1414	1413	1415	1	110.000	502.080
1410	1409	1411	1	109.500	292.880
1406	1405	1408	1	110.000	502.080
1402	1401	1403	1	110.000	502.080
1403	1401	1404	1	109.500	355.640
1402	1401	1404	1	110.000	502.080
1411	1409	1412	1	109.500	355.640
1406	1405	1407	1	110.000	502.080
1407	1405	1408	1	110.000	502.080
1410	1409	1412	1	109.500	355.640
1417	1418	1421	1	110.000	502.080
1412	1413	1422	1	110.000	502.080
1413	1422	1423	1	180.000	167.360
1422	1423	1424	1	110.000	502.080
1423	1424	1425	1	180.000	167.360
1424	1425	1426	1	109.500	355.640
1424	1425	1427	1	109.500	355.640
1424	1425	1428	1	110.000	502.080
1415	1413	1422	1	110.000	502.080
1426	1425	1427	1	109.500	292.880
1426	1425	1427	1	109.500	292.880
1414	1413	1422	1	109.500	355.640
1428	1425	1427	1	109.500	355.640
1420	1418	1421	1	109.500	355.640
1419	1418	1421	1	109.500	355.640
1429	1432	1433	1	180.000	167.360
1432	1433	1434	1	110.000	502.080
1432	1433	1435	1	110.000	502.080
1432	1433	1436	1	110.000	502.080
1433	1436	1437	1	180.000	167.360
1436	1437	1438	1	109.500	355.640
1436	1437	1439	1	109.500	355.640
1436	1437	1440	1	110.000	502.080
1437	1440	1441	1	180.000	167.360
1440	1441	1442	1	110.000	502.080
1440	1441	1443	1	110.000	502.080
1441	1443	1444	1	180.000	167.360
1443	1444	1445	1	110.000	502.080
1444	1445	1446	1	180.000	167.360
1445	1446	1447	1	109.500	355.640
1445	1446	1448	1	109.500	355.640
1447	1446	1448	1	109.500	292.880
1442	1441	1443	1	110.000	502.080
1438	1437	1439	1	109.500	292.880
1434	1433	1436	1	110.000	502.080
1430	1429	1431	1	110.000	502.080
1431	1429	1432	1	109.500	355.640
1430	1429	1432	1	110.000	502.080
1439	1437	1440	1	109.500	355.640
1434	1433	1435	1	110.000	502.080
1435	1433	1436	1	110.000	502.080
1438	1437	1440	1	109.500	355.640
1445	1446	1449	1	110.000	502.080
1440	1441	1450	1	110.000	502.080
1441	1450	1451	1	180.000	167.360
1450	1451	1452	1	110.000	502.080
1451	1452	1453	1	180.000	167.360
1452	1453	1454	1	109.500	355.640
1452	1453	1455	1	109.500	355.640
1452	1453	1456	1	110.000	502.080
1443	1441	1450	1	110.000	502.080
1454	1453	1455	1	109.500	292.880
1454	1453	1455	1	109.500	292.880
1442	1441	1450	1	109.500	355.640
1456	1453	1455	1	109.500	355.640
1448	1446	1449	1	109.500	355.640
1447	1446	1449	1	109.500	355.640
1457	1460	1461	1	180.000	167.360
1460	1461	1462	1	110.000	502.080
1460	1461	1463	1	110.000	502.080
1460	1461	1464	1	110.000	502.080
1461	1464	1465	1	180.000	167.360
1464	1465	1466	1	109.500	355.640
1464	1465	1467	1	109.500	355.640
1464	1465	1468	1	110.000	502.080
1465	1468	1469	1	180.000	167.360
1468	1469	1470	1	110.000	502.080
1468	1469	1471	1	110.000	502.080
1469	1471	1472	1	180.000	167.360
1471	1472	1473	1	110.000	502.080
1472	1473	1474	1	180.000	167.360
1473	1474	1475	1	109.500	355.640
1473	1474	1476	1	109.500	355.640
1475	1474	1476	1	109.500	292.880
1470	1469	1471	1	110.000	502.080
1466	1465	1467	1	109.500	292.880
1462	1461	1464	1	110.000	502.080
1458	1457	1459	1	110.000	502.080
1459	1457	1460	1	109.500	355.640
1458	1457	1460	1	110.000	502.080
1467	1465	1468	1	109.500	355.640
1462	1461	1463	1	110.000	502.080
1463	1461	1464	1	110.000	502.080
1466	1465	1468	1	109.500	355.640
1473	1474	1477	1	110.000	502.080
1468	1469	1478	1	110.000	502.080
1469	1478	1479	1	180.000	167.360
1478	1479	1480	1	110.000	502.080
1479	1480	1481	1	180.000	167.360
1480	1481	1482	1	109.500	355.640
1480	1481	1483	1	109.500	355.640
1480	1481	1484	1	110.000	502.080
1471	1469	1478	1	110.000	502.080
1482	1481	1483	1	109.500	292.880
1482	1481	1483	1	109.500	292.880
1470	1469	1478	1	109.500	355.640
1484	1481	1483	1	109.500	355.640
1476	1474	1477	1	109.500	355.640
1475	1474	1477	1	109.500	355.640
1485	1488	1489	1	180.000	167.360
1488	1489	1490	1	110.000	502.080
1488	1489	1491	1	110.000	502.080
1488	1489	1492	1	110.000	502.080
1489	1492	1493	1	180.000	167.360
1492	1493	1494	1	109.500	355.640
1492	1493	1495	1	109.500	355.640
1492	1493	1496	1	110.000	502.080
1493	1496	1497	1	180.000	167.360
1496	1497	1498	1	110.000	502.080
1496	1497	1499	1	110.000	502.080
1497	1499	1500	1	180.000	167.360
1499	1500	1501	1	110.000	502.080
1500	1501	1502	1	180.000	167.360
1501	1502	1503	1	109.500	355.640
1501	1502	1504	1	109.500	355.640
1503	1502	1504	1	109.500	292.880
1498	1497	1499	1	110.000	502.080
1494	1493	1495	1	109.500	292.880
1490	1489	1492	1	110.000	502.080
1486	1485	1487	1	110.000	502.080
1487	1485	1488	1	109.500	355.640
1486	1485	1488	1	110.000	502.080
1495	1493	1496	1	109.500	355.640
1490	1489	1491	1	110.000	502.080
1491	1489	1492	1	110.000	502.080
1494	1493	1496	1	109.500	355.640
1501	1502	1505	1	110.000	502.080
1496	1497	1506	1	110.000	502.080
1497	1506	1507	1	180.000	167.360
1506	1507	1508	1	110.000	502.080
1507	1508	1509	1	180.000	167.360
1508	1509	1510	1	109.500	355.640
1508	1509	1511	1	109.500	355.640
1508	1509	1512	1	110.000	502.080
1499	1497	1506	1	110.000	502.080
1510	1509	1511	1	109.500	292.880
1510	1509	1511	1	109.500	292.880
1498	1497	1506	1	109.500	355.640
1512	1509	1511	1	109.500	355.640
1504	1502	1505	1	109.500	355.640
1503	1502	1505	1	109.500	355.640
1513	1516	1517	1	180.000	167.360
1516	1517	1518	1	110.000	502.080
1516	1517	1519	1	110.000	502.080
1516	1517	1520	1	110.000	502.080
1517	1520	1521	1	180.000	167.360
1520	1521	1522	1	109.500	355.640
1520	1521	1523	1	109.500	355.640
1520	1521	1524	1	110.000	502.080
1521	1524	1525	1	180.000	167.360
1524	1525	1526	1	110.000	502.080
1524	1525	1527	1	110.000	502.080
1525	1527	1528	1	180.000	167.360
1527	1528	1529	1	110.000	502.080
1528	1529	1530	1	180.000	167.360
1529	1530	1531	1	109.500	355.640
1529	1530	1532	1	109.500	355.640
1531	1530	1532	1	109.500	292.880
1526	1525	1527	1	110.000	502.080
1522	1521	1523	1	109.500	292.880
1518	1517	1520	1	110.000	502.080
1514	1513	1515	1	110.000	502.080
1515	1513	1516	1	109.500	355.640
1514	1513	1516	1	110.000	502.080
1523	1521	1524	1	109.500	355.640
1518	1517	1519	1	110.000	502.080
1519	1517	1520	1	110.000	502.080
1522	1521	1524	1	109.500	355.640
1529	1530	1533	1	110.000	502.080
1524	1525	1534	1	110.000	502.080
1525	1534	1535	1	180.000	167.360
1534	1535	1536	1	110.000	502.080
1535	1536	1537	1	180.000	167.360
1536	1537	1538	1	109.500	355.640
1536	1537	1539	1	109.500	355.640
1536	1537	1540	1	110.000	502.080
1527	1525	1534	1	110.000	502.080
1538	1537	1539	1	109.500	292.880
1538	1537	1539	1	109.500	292.880
1526	1525	1534	1	109.500	355.640
1540	1537	1539	1	109.500	355.640
1532	1530	1533	1	109.500	355.640
1531	1530	1533	1	109.500	355.640
1541	1544	1545	1	180.000	167.360
1544	1545	1546	1	110.000	502.080
1544	1545	1547	1	110.000	502.080
1544	1545	1548	1	110.000	502.080
1545	1548	1549	1	180.000	167.360
1548	1549	1550	1	109.500	355.640
1548	1549	1551	1	109.500	355.640
1548	1549	1552	1	110.000	502.080
1549	1552	1553	1	180.000	167.360
1552	1553	1554	1	110.000	502.080
1552	1553	1555	1	110.000	502.080
1553	1555	1556	1	180.000	167.360
1555	1556	1557	1	110.000	502.080
1556	1557	1558	1	180.000	167.360
1557	1558	1559	1	109.500	355.640
1557	1558	1560	1	109.500	355.640
1559	1558	1560	1	109.500	292.880
1554	1553	1555	1	110.000	502.080
1550	1549	1551	1	109.500	292.880
1546	1545	1548	1	110.000	502.080
1542	1541	1543	1	110.000	502.080
1543	1541	1544	1	109.500	355.640
1542	1541	1544	1	110.000	502.080
1551	1549	1552	1	109.500	355.640
1546	1545	1547	1	110.000	502.080
1547	1545	1548	1	110.000	502.080
1550	1549	1552	1	109.500	355.640
1557	1558	1561	1	110.000	502.080
1552	1553	1562	1	110.000	502.080
1553	1562	1563	1	180.000	167.360
1562	1563	1564	1	110.000	502.080
1563	1564	1565	1	180.000	167.360
1564	1565	1566	1	109.500	355.640
1564	1565	1567	1	109.500	355.640
1564	1565	1568	1	110.000	502.080
1555	1553	1562	1	110.000	502.080
1566	1565	1567	1	109.500	292.880
1566	1565	1567	1	109.500	292.880
1554	1553	1562	1	109.500	355.640
1568	1565	1567	1	109.500	355.640
1560	1558	1561	1	109.500	355.640
1559	1558	1561	1	109.500	355.640
1569	1572	1573	1	180.000	167.360
1572	1573	1574	1	110.000	502.080
1572	1573	1575	1	110.000	502.080
1572	1573	1576	1	110.000	502.080
1573	1576	1577	1	180.000	167.360
1576	1577	1578	1	109.500	355.640
1576	1577	1579	1	109.500	355.640
1576	1577	1580	1	110.000	502.080
1577	1580	1581	1	180.000	167.360
1580	1581	1582	1	110.000	502.080
1580	1581	1583	1	110.000	502.080
1581	1583	1584	1	180.000	167.360
1583	1584	1585	1	110.000	502.080
1584	1585	1586	1	180.000	167.360
1585	1586	1587	1	109.500	355.640
1585	1586	1588	1	109.500	355.640
1587	1586	1588	1	109.500	292.880
1582	1581	1583	1	110.000	502.080
1578	1577	1579	1	109.500	292.880
1574	1573	1576	1	110.000	502.080
1570	1569	1571	1	110.000	502.080
1571	1569	1572	1	109.500	355.640
1570	1569	1572	1	110.000	502.080
1579	1577	1580	1	109.500	355.640
1574	1573	1575	1	110.000	502.080
1575	1573	1576	1	110.000	502.080
1578	1577	1580	1	109.500	355.640
1585	1586	1589	1	110.000	502.080
1580	1581	1590	1	110.000	502.080
1581	1590	1591	1	180.000	167.360
1590	1591	1592	1	110.000	502.080
1591	1592	1593	1	180.000	167.360
1592	1593	1594	1	109.500	355.640
1592	1593	1595	1	109.500	355.640
1592	1593	1596	1	110.000	502.080
1583	1581	1590	1	110.000	502.080
1594	1593	1595	1	109.500	292.880
1594	1593	1595	1	109.500	292.880
1582	1581	1590	1	109.500	355.640
1596	1593	1595	1	109.500	355.640
1588	1586	1589	1	109.500	355.640
1587	1586	1589	1	109.500	355.640
1597	1600	1601	1	180.000	167.360
1600	1601	1602	1	110.000	502.080
1600	1601	1603	1	110.000	502.080
1600	1601	1604	1	110.000	502.080
1601	1604	1605	1	180.000	167.360
1604	1605	1606	1	109.500	355.640
1604	1605	1607	1	109.500	355.640
1604	1605	1608	1	110.000	502.080
1605	1608	1609	1	180.000	167.360
1608	1609	1610	1	110.000	502.080
1608	1609	1611	1	110.000	502.080
1609	1611	1612	1	180.000	167.360
1611	1612	1613	1	110.000	502.080
1612	1613	1614	1	180.000	167.360
1613	1614	1615	1	109.500	355.640
1613	1614	1616	1	109.500	355.640
1615	1614	1616	1	109.500	292.880
1610	1609	1611	1	110.000	502.080
1606	1605	1607	1	109.500	292.880
1602	1601	1604	1	110.000	502.080
1598	1597	1599	1	110.000	502.080
1599	1597	1600	1	109.500	355.640
1598	1597	1600	1	110.000	502.080
1607	1605	1608	1	109.500	355.640
1602	1601	1603	1	110.000	502.080
1603	1601	1604	1	110.000	502.080
1606	1605	1608	1	109.500	355.640
1613	1614	1617	1	110.000	502.080
1608	1609	1618	1	110.000	502.080
1609	1618	1619	1	180.000	167.360
1618	1619	1620	1	110.000	502.080
1619	1620	1621	1	180.000	167.360
1620	1621	1622	1	109.500	355.640
1620	1621	1623	1	109.500	355.640
1620	1621	1624	1	110.000	502.080
1611	1609	1618	1	110.000	502.080
1622	1621	1623	1	109.500	292.880
1622	1621	1623	1	109.500	292.880
1610	1609	1618	1	109.500	355.640
1624	1621	1623	1	109.500	355.640
1616	1614	1617	1	109.500	355.640
1615	1614	1617	1	109.500	355.640
1625	1628	1629	1	180.000	167.360
1628	1629	1630	1	110.000	502.080
1628	1629	1631	1	110.000	502.080
1628	1629	1632	1	110.000	502.080
1629	1632	1633	1	180.000	167.360
1632	1633	1634	1	109.500	355.640
1632	1633	1635	1	109.500	355.640
1632	1633	1636	1	110.000	502.080
1633	1636	1637	1	180.000	167.360
1636	1637	1638	1	110.000	502.080
1636	1637	1639	1	110.000	502.080
1637	1639	1640	1	180.000	167.360
1639	1640	1641	1	110.000	502.080
1640	1641	1642	1	180.000	167.360
1641	1642	1643	1	109.500	355.640
1641	1642	1644	1	109.500	355.640
1643	1642	1644	1	109.500	292.880
1638	1637	1639	1	110.000	502.080
1634	1633	1635	1	109.500	292.880
1630	1629	1632	1	110.000	502.080
1626	1625	1627	1	110.000	502.080
1627	1625	1628	1	109.500	355.640
1626	1625	1628	1	110.000	502.080
1635	1633	1636	1	109.500	355.640
1630	1629	1631	1	110.000	502.080
1631	1629	1632	1	110.000	502.080
1634	1633	1636	1	109.500	355.640
1641	1642	1645	1	110.000	502.080
1636	1637	1646	1	110.000	502.080
1637	1646	1647	1	180.000	167.360
1646	1647	1648	1	110.000	502.080
1647	1648	1649	1	180.000	167.360
1648	1649	1650	1	109.500	355.640
1648	1649	1651	1	109.500	355.640
1648	1649	1652	1	110.000	502.080
1639	1637	1646	1	110.000	502.080
1650	1649	1651	1	109.500	292.880
1650	1649	1651	1	109.500	292.880
1638	1637	1646	1	109.500	355.640
1652	1649	1651	1	109.500	355.640
1644	1642	1645	1	109.500	355.640
1643	1642	1645	1	109.500	355.640
1653	1656	1657	1	180.000	167.360
1656	1657	1658	1	110.000	502.080
1656	1657	1659	1	110.000	502.080
1656	1657	1660	1	110.000	502.080
1657	1660	1661	1	180.000	167.360
1660	1661	1662	1	109.500	355.640
1660	1661	1663	1	109.500	355.640
1660	1661	1664	1	110.000	502.080
1661	1664	1665	1	180.000	167.360
1664	1665	1666	1	110.000	502.080
1664	1665	1667	1	110.000	502.080
1665	1667	1668	1	180.000	167.360
1667	1668	1669	1	110.000	502.080
1668	1669	1670	1	180.000	167.360
1669	1670	1671	1	109.500	355.640
1669	1670	1672	1	109.500	355.640
1671	1670	1672	1	109.500	292.880
1666	1665	1667	1	110.000	502.080
1662	1661	1663	1	109.500	292.880
1658	1657	1660	1	110.000	502.080
1654	1653	1655	1	110.000	502.080
1655	1653	1656	1	109.500	355.640
1654	1653	1656	1	110.000	502.080
1663	1661	1664	1	109.500	355.640
1658	1657	1659	1	110.000	502.080
1659	1657	1660	1	110.000	502.080
1662	1661	1664	1	109.500	355.640
1669	1670	1673	1	110.000	502.080
1664	1665	1674	1	110.000	502.080
1665	1674	1675	1	180.000	167.360
1674	1675	1676	1	110.000	502.080
1675	1676	1677	1	180.000	167.360
1676	1677	1678	1	109.500	355.640
1676	1677	1679	1	109.500	355.640
1676	1677	1680	1	110.000	502.080
1667	1665	1674	1	110.000	502.080
1678	1677	1679	1	109.500	292.880
1678	1677	1679	1	109.500	292.880
1666	1665	1674	1	109.500	355.640
1680	1677	1679	1	109.500	355.640
1672	1670	1673	1	109.500	355.640
1671	1670	1673	1	109.500	355.640
1681	1684	1685	1	180.000	167.360
1684	1685	1686	1	110.000	502.080
1684	1685	1687	1	110.000	502.080
1684	1685	1688	1	110.000	502.080
1685	1688	1689	1	180.000	167.360
1688	1689	1690	1	109.500	355.640
1688	1689	1691	1	109.500	355.640
1688	1689	1692	1	110.000	502.080
1689	1692	1693	1	180.000	167.360
1692	1693	1694	1	110.000	502.080
1692	1693	1695	1	110.000	502.080
1693	1695	1696	1	180.000	167.360
1695	1696	1697	1	110.000	502.080
1696	1697	1698	1	180.000	167.360
1697	1698	1699	1	109.500	355.640
1697	1698	1700	1	109.500	355.640
1699	1698	1700	1	109.500	292.880
1694	1693	1695	1	110.000	502.080
1690	1689	1691	1	109.500	292.880
1686	1685	1688	1	110.000	502.080
1682	1681	1683	1	110.000	502.080
1683	1681	1684	1	109.500	355.640
1682	1681	1684	1	110.000	502.080
1691	1689	1692	1	109.500	355.640
1686	1685	1687	1	110.000	502.080
1687	1685	1688	1	110.000	502.080
1690	1689	1692	1	109.500	355.640
1697	1698	1701	1	110.000	502.080
1692	1693	1702	1	110.000	502.080
1693	1702	1703	1	180.000	167.360
1702	1703	1704	1	110.000	502.080
1703	1704	1705	1	180.000	167.360
1704	1705	1706	1	109.500	355.640
1704	1705	1707	1	109.500	355.640
1704	1705	1708	1	110.000	502.080
1695	1693	1702	1	110.000	502.080
1706	1705	1707	1	109.500	292.880
1706	1705	1707	1	109.500	292.880
1694	1693	1702	1	109.500	355.640
1708	1705	1707	1	109.500	355.640
1700	1698	1701	1	109.500	355.640
1699	1698	1701	1	109.500	355.640
1709	1712	1713	1	180.000	167.360
1712	1713	1714	1	110.000	502.080
1712	1713	1715	1	110.000	502.080
1712	1713	1716	1	110.000	502.080
1713	1716	1717	1	180.000	167.360
1716	1717	1718	1	109.500	355.640
1716	1717	1719	1	109.500	355.640
1716	1717	1720	1	110.000	502.080
1717	1720	1721	1	180.000	167.360
1720	1721	1722	1	110.000	502.080
1720	1721	1723	1	110.000	502.080
1721	1723	1724	1	180.000	167.360
1723	1724	1725	1	110.000	502.080
1724	1725	1726	1	180.000	167.360
1725	1726	1727	1	109.500	355.640
1725	1726	1728	1	109.500	355.640
1727	1726	1728	1	109.500	292.880
1722	1721	1723	1	110.000	502.080
1718	1717	1719	1	109.500	292.880
1714	1713	1716	1	110.000	502.080
1710	1709	1711	1	110.000	502.080
1711	1709	1712	1	109.500	355.640
1710	1709	1712	1	110.000	502.080
1719	1717	1720	1	109.500	355.640
1714	1713	1715	1	110.000	502.080
1715	1713	1716	1	110.000	502.080
1718	1717	1720	1	109.500	355.640
1725	1726	1729	1	110.000	502.080
1720	1721	1730	1	110.000	502.080
1721	1730	1731	1	180.000	167.360
1730	1731	1732	1	110.000	502.080
1731	1732	1733	1	180.000	167.360
1732	1733	1734	1	109.500	355.640
1732	1733	1735	1	109.500	355.640
1732	1733	1736	1	110.000	502.080
1723	1721	1730	1	110.000	502.080
1734	1733	1735	1	109.500	292.880
1734	1733	1735	1	109.500	292.880
1722	1721	1730	1	109.500	355.640
1736	1733	1735	1	109.500	355.640
1728	1726	1729	1	109.500	355.640
1727	1726	1729	1	109.500	355.640
1737	1740	1741	1	180.000	167.360
1740	1741	1742	1	110.000	502.080
1740	1741	1743	1	110.000	502.080
1740	1741	1744	1	110.000	502.080
1741	1744	1745	1	180.000	167.360
1744	1745	1746	1	109.500	355.640
1744	1745	1747	1	109.500	355.640
1744	1745	1748	1	110.000	502.080
1745	1748	1749	1	180.000	167.360
1748	1749	1750	1	110.000	502.080
1748	1749	1751	1	110.000	502.080
1749	1751	1752	1	180.000	167.360
1751	1752	1753	1	110.000	502.080
1752	1753	1754	1	180.000	167.360
1753	1754	1755	1	109.500	355.640
1753	1754	1756	1	109.500	355.640
1755	1754	1756	1	109.500	292.880
1750	1749	1751	1	110.000	502.080
1746	1745	1747	1	109.500	292.880
1742	1741	1744	1	110.000	502.080
1738	1737	1739	1	110.000	502.080
1739	1737	1740	1	109.500	355.640
1738	1737	1740	1	110.000	502.080
1747	1745	1748	1	109.500	355.640
1742	1741	1743	1	110.000	502.080
1743	1741	1744	1	110.000	502.080
1746	1745	1748	1	109.500	355.640
1753	1754	1757	1	110.000	502.080
1748	1749	1758	1	110.000	502.080
1749	1758	1759	1	180.000	167.360
1758	1759	1760	1	110.000	502.080
1759	1760	1761	1	180.000	167.360
1760	1761	1762	1	109.500	355.640
1760	1761	1763	1	109.500	355.640
1760	1761	1764	1	110.000	502.080
1751	1749	1758	1	110.000	502.080
1762	1761	1763	1	109.500	292.880
1762	1761	1763	1	109.500	292.880
1750	1749	1758	1	109.500	355.640
1764	1761	1763	1	109.500	355.640
1756	1754	1757	1	109.500	355.640
1755	1754	1757	1	109.500	355.640
1765	1768	1769	1	180.000	167.360
1768	1769	1770	1	110.000	502.080
1768	1769	1771	1	110.000	502.080
1768	1769	1772	1	110.000	502.080
1769	1772	1773	1	180.000	167.360
1772	1773	1774	1	109.500	355.640
1772	1773	1775	1	109.500	355.640
1772	1773	1776	1	110.000	502.080
1773	1776	1777	1	180.000	167.360
1776	1777	1778	1	110.000	502.080
1776	1777	1779	1	110.000	502.080
1777	1779	1780	1	180.000	167.360
1779	1780	1781	1	110.000	502.080
1780	1781	1782	1	180.000	167.360
1781	1782	1783	1	109.500	355.640
1781	1782	1784	1	109.500	355.640
1783	1782	1784	1	109.500	292.880
1778	1777	1779	1	110.000	502.080
1774	1773	1775	1	109.500	292.880
1770	1769	1772	1	110.000	502.080
1766	1765	1767	1	110.000	502.080
1767	1765	1768	1	109.500	355.640
1766	1765	1768	1	110.000	502.080
1775	1773	1776	1	109.500	355.640
1770	1769	1771	1	110.000	502.080
1771	1769	1772	1	110.000	502.080
1774	1773	1776	1	109.500	355.640
1781	1782	1785	1	110.000	502.080
1776	1777	1786	1	110.000	502.080
1777	1786	1787	1	180.000	167.360
1786	1787	1788	1	110.000	502.080
1787	1788	1789	1	180.000	167.360
1788	1789	1790	1	109.500	355.640
1788	1789	1791	1	109.500	355.640
1788	1789	1792	1	110.000	502.080
1779	1777	1786	1	110.000	502.080
1790	1789	1791	1	109.500	292.880
1790	1789	1791	1	109.500	292.880
1778	1777	1786	1	109.500	355.640
1792	1789	1791	1	109.500	355.640
1784	1782	1785	1	109.500	355.640
1783	1782	1785	1	109.500	355.640
22	23	35	1	110.0	502.08
22	23	49	1	110.0	502.08
24	23	35	1	110.0	502.08
24	23	49	1	110.0	502.08
35	23	49	1	110.0	502.08
50	51	63	1	110.0	502.08
50	51	77	1	110.0	502.08
52	51	63	1	110.0	502.08
52	51	77	1	110.0	502.08
63	51	77	1	110.0	502.08
78	79	91	1	110.0	502.08
78	79	105	1	110.0	502.08
80	79	91	1	110.0	502.08
80	79	105	1	110.0	502.08
91	79	105	1	110.0	502.08
106	107	119	1	110.0	502.08
106	107	133	1	110.0	502.08
108	107	119	1	110.0	502.08
108	107	133	1	110.0	502.08
119	107	133	1	110.0	502.08
134	135	147	1	110.0	502.08
134	135	161	1	110.0	502.08
136	135	147	1	110.0	502.08
136	135	161	1	110.0	502.08
147	135	161	1	110.0	502.08
162	163	175	1	110.0	502.08
162	163	189	1	110.0	502.08
164	163	175	1	110.0	502.08
164	163	189	1	110.0	502.08
175	163	189	1	110.0	502.08
190	191	203	1	110.0	502.08
190	191	217	1	110.0	502.08
192	191	203	1	110.0	502.08
192	191	217	1	110.0	502.08
203	191	217	1	110.0	502.08
246	247	259	1	110.0	502.08
246	247	273	1	110.0	502.08
248	247	259	1	110.0	502.08
248	247	273	1	110.0	502.08
259	247	273	1	110.0	502.08
274	275	287	1	110.0	502.08
274	275	301	1	110.0	502.08
276	275	287	1	110.0	502.08
276	275	301	1	110.0	502.08
287	275	301	1	110.0	502.08
302	303	315	1	110.0	502.08
302	303	329	1	110.0	502.08
304	303	315	1	110.0	502.08
304	303	329	1	110.0	502.08
315	303	329	1	110.0	502.08
330	331	343	1	110.0	502.08
330	331	357	1	110.0	502.08
332	331	343	1	110.0	502.08
332	331	357	1	110.0	502.08
343	331	357	1	110.0	502.08
358	359	371	1	110.0	502.08
358	359	385	1	110.0	502.08
360	359	371	1	110.0	502.08
360	359	385	1	110.0	502.08
371	359	385	1	110.0	502.08
386	387	399	1	110.0	502.08
386	387	413	1	110.0	502.08
388	387	399	1	110.0	502.08
388	387	413	1	110.0	502.08
399	387	413	1	110.0	502.08
414	415	427	1	110.0	502.08
414	415	441	1	110.0	502.08
416	415	427	1	110.0	502.08
416	415	441	1	110.0	502.08
427	415	441	1	110.0	502.08
470	471	483	1	110.0	502.08
470	471	497	1	110.0	502.08
472	471	483	1	110.0	502.08
472	471	497	1	110.0	502.08
483	471	497	1	110.0	502.08
498	499	511	1	110.0	502.08
498	499	525	1	110.0	502.08
500	499	511	1	110.0	502.08
500	499	525	1	110.0	502.08
511	499	525	1	110.0	502.08
526	527	539	1	110.0	502.08
526	527	553	1	110.0	502.08
528	527	539	1	110.0	502.08
528	527	553	1	110.0	502.08
539	527	553	1	110.0	502.08
554	555	567	1	110.0	502.08
554	555	581	1	110.0	502.08
556	555	567	1	110.0	502.08
556	555	581	1	110.0	502.08
567	555	581	1	110.0	502.08
582	583	595	1	110.0	502.08
582	583	609	1	110.0	502.08
584	583	595	1	110.0	502.08
584	583	609	1	110.0	502.08
595	583	609	1	110.0	502.08
610	611	623	1	110.0	502.08
610	611	637	1	110.0	502.08
612	611	623	1	110.0	502.08
612	611	637	1	110.0	502.08
623	611	637	1	110.0	502.08
638	639	651	1	110.0	502.08
638	639	665	1	110.0	502.08
640	639	651	1	110.0	502.08
640	639	665	1	110.0	502.08
651	639	665	1	110.0	502.08
694	695	707	1	110.0	502.08
694	695	721	1	110.0	502.08
696	695	707	1	110.0	502.08
696	695	721	1	110.0	502.08
707	695	721	1	110.0	502.08
722	723	735	1	110.0	502.08
722	723	749	1	110.0	502.08
724	723	735	1	110.0	502.08
724	723	749	1	110.0	502.08
735	723	749	1	110.0	502.08
750	751	763	1	110.0	502.08
750	751	777	1	110.0	502.08
752	751	763	1	110.0	502.08
752	751	777	1	110.0	502.08
763	751	777	1	110.0	502.08
778	779	791	1	110.0	502.08
778	779	805	1	110.0	502.08
780	779	791	1	110.0	502.08
780	779	805	1	110.0	502.08
791	779	805	1	110.0	502.08
806	807	819	1	110.0	502.08
806	807	833	1	110.0	502.08
808	807	819	1	110.0	502.08
808	807	833	1	110.0	502.08
819	807	833	1	110.0	502.08
834	835	847	1	110.0	502.08
834	835	861	1	110.0	502.08
836	835	847	1	110.0	502.08
836	835	861	1	110.0	502.08
847	835	861	1	110.0	502.08
862	863	875	1	110.0	502.08
862	863	889	1	110.0	502.08
864	863	875	1	110.0	502.08
864	863	889	1	110.0	502.08
875	863	889	1	110.0	502.08
918	919	931	1	110.0	502.08
918	919	945	1	110.0	502.08
920	919	931	1	110.0	502.08
920	919	945	1	110.0	502.08
931	919	945	1	110.0	502.08
946	947	959	1	110.0	502.08
946	947	973	1	110.0	502.08
948	947	959	1	110.0	502.08
948	947	973	1	110.0	502.08
959	947	973	1	110.0	502.08
974	975	987	1	110.0	502.08
974	975	1001	1	110.0	502.08
976	975	987	1	110.0	502.08
976	975	1001	1	110.0	502.08
987	975	1001	1	110.0	502.08
1002	1003	1015	1	110.0	502.08
1002	1003	1029	1	110.0	502.08
1004	1003	1015	1	110.0	502.08
1004	1003	1029	1	110.0	502.08
1015	1003	1029	1	110.0	502.08
1030	1031	1043	1	110.0	502.08
1030	1031	1057	1	110.0	502.08
1032	1031	1043	1	110.0	502.08
1032	1031	1057	1	110.0	502.08
1043	1031	1057	1	110.0	502.08
1058	1059	1071	1	110.0	502.08
1058	1059	1085	1	110.0	502.08
1060	1059	1071	1	110.0	502.08
1060	1059	1085	1	110.0	502.08
1071	1059	1085	1	110.0	502.08
1086	1087	1099	1	110.0	502.08
1086	1087	1113	1	110.0	502.08
1088	1087	1099	1	110.0	502.08
1088	1087	1113	1	110.0	502.08
1099	1087	1113	1	110.0	502.08
1142	1143	1155	1	110.0	502.08
1142	1143	1169	1	110.0	502.08
1144	1143	1155	1	110.0	502.08
1144	1143	1169	1	110.0	502.08
1155	1143	1169	1	110.0	502.08
1170	1171	1183	1	110.0	502.08
1170	1171	1197	1	110.0	502.08
1172	1171	1183	1	110.0	502.08
1172	1171	1197	1	110.0	502.08
1183	1171	1197	1	110.0	502.08
1198	1199	1211	1	110.0	502.08
1198	1199	1225	1	110.0	502.08
1200	1199	1211	1	110.0	502.08
1200	1199	1225	1	110.0	502.08
1211	1199	1225	1	110.0	502.08
1226	1227	1239	1	110.0	502.08
1226	1227	1253	1	110.0	502.08
1228	1227	1239	1	110.0	502.08
1228	1227	1253	1	110.0	502.08
1239	1227	1253	1	110.0	502.08
1254	1255	1267	1	110.0	502.08
1254	1255	1281	1	110.0	502.08
1256	1255	1267	1	110.0	502.08
1256	1255	1281	1	110.0	502.08
1267	1255	1281	1	110.0	502.08
1282	1283	1295	1	110.0	502.08
1282	1283	1309	1	110.0	502.08
1284	1283	1295	1	110.0	502.08
1284	1283	1309	1	110.0	502.08
1295	1283	1309	1	110.0	502.08
1310	1311	1323	1	110.0	502.08
1310	1311	1337	1	110.0	502.08
1312	1311	1323	1	110.0	502.08
1312	1311	1337	1	110.0	502.08
1323	1311	1337	1	110.0	502.08
1366	1367	1379	1	110.0	502.08
1366	1367	1393	1	110.0	502.08
1368	1367	1379	1	110.0	502.08
1368	1367	1393	1	110.0	502.08
1379	1367	1393	1	110.0	502.08
1394	1395	1407	1	110.0	502.08
1394	1395	1421	1	110.0	502.08
1396	1395	1407	1	110.0	502.08
1396	1395	1421	1	110.0	502.08
1407	1395	1421	1	110.0	502.08
1422	1423	1435	1	110.0	502.08
1422	1423	1449	1	110.0	502.08
1424	1423	1435	1	110.0	502.08
1424	1423	1449	1	110.0	502.08
1435	1423	1449	1	110.0	502.08
1450	1451	1463	1	110.0	502.08
1450	1451	1477	1	110.0	502.08
1452	1451	1463	1	110.0	502.08
1452	1451	1477	1	110.0	502.08
1463	1451	1477	1	110.0	502.08
1478	1479	1491	1	110.0	502.08
1478	1479	1505	1	110.0	502.08
1480	1479	1491	1	110.0	502.08
1480	1479	1505	1	110.0	502.08
1491	1479	1505	1	110.0	502.08
1506	1507	1519	1	110.0	502.08
1506	1507	1533	1	110.0	502.08
1508	1507	1519	1	110.0	502.08
1508	1507	1533	1	110.0	502.08
1519	1507	1533	1	110.0	502.08
1534	1535	1547	1	110.0	502.08
1534	1535	1561	1	110.0	502.08
1536	1535	1547	1	110.0	502.08
1536	1535	1561	1	110.0	502.08
1547	1535	1561	1	110.0	502.08
1590	1591	1603	1	110.0	502.08
1590	1591	1617	1	110.0	502.08
1592	1591	1603	1	110.0	502.08
1592	1591	1617	1	110.0	502.08
1603	1591	1617	1	110.0	502.08
1618	1619	1631	1	110.0	502.08
1618	1619	1645	1	110.0	502.08
1620	1619	1631	1	110.0	502.08
1620	1619	1645	1	110.0	502.08
1631	1619	1645	1	110.0	502.08
1646	1647	1659	1	110.0	502.08
1646	1647	1673	1	110.0	502.08
1648	1647	1659	1	110.0	502.08
1648	1647	1673	1	110.0	502.08
1659	1647	1673	1	110.0	502.08
1674	1675	1687	1	110.0	502.08
1674	1675	1701	1	110.0	502.08
1676	1675	1687	1	110.0	502.08
1676	1675	1701	1	110.0	502.08
1687	1675	1701	1	110.0	502.08
1702	1703	1715	1	110.0	502.08
1702	1703	1729	1	110.0	502.08
1704	1703	1715	1	110.0	502.08
1704	1703	1729	1	110.0	502.08
1715	1703	1729	1	110.0	502.08
1730	1731	1743	1	110.0	502.08
1730	1731	1757	1	110.0	502.08
1732	1731	1743	1	110.0	502.08
1732	1731	1757	1	110.0	502.08
1743	1731	1757	1	110.0	502.08
1758	1759	1771	1	110.0	502.08
1758	1759	1785	1	110.0	502.08
1760	1759	1771	1	110.0	502.08
1760	1759	1785	1	110.0	502.08
1771	1759	1785	1	110.0	502.08
218	219	7	1	110.0	502.08
218	219	21	1	110.0	502.08
220	219	7	1	110.0	502.08
220	219	21	1	110.0	502.08
7	219	21	1	110.0	502.08
442	443	231	1	110.0	502.08
442	443	245	1	110.0	502.08
444	443	231	1	110.0	502.08
444	443	245	1	110.0	502.08
231	443	245	1	110.0	502.08
666	667	455	1	110.0	502.08
666	667	469	1	110.0	502.08
668	667	455	1	110.0	502.08
668	667	469	1	110.0	502.08
455	667	469	1	110.0	502.08
890	891	679	1	110.0	502.08
890	891	693	1	110.0	502.08
892	891	679	1	110.0	502.08
892	891	693	1	110.0	502.08
679	891	693	1	110.0	502.08
1114	1115	903	1	110.0	502.08
1114	1115	917	1	110.0	502.08
1116	1115	903	1	110.0	502.08
1116	1115	917	1	110.0	502.08
903	1115	917	1	110.0	502.08
1338	1339	1127	1	110.0	502.08
1338	1339	1141	1	110.0	502.08
1340	1339	1127	1	110.0	502.08
1340	1339	1141	1	110.0	502.08
1127	1339	1141	1	110.0	502.08
1562	1563	1351	1	110.0	502.08
1562	1563	1365	1	110.0	502.08
1564	1563	1351	1	110.0	502.08
1564	1563	1365	1	110.0	502.08
1351	1563	1365	1	110.0	502.08
1786	1787	1575	1	110.0	502.08
1786	1787	1589	1	110.0	502.08
1788	1787	1575	1	110.0	502.08
1788	1787	1589	1	110.0	502.08
1575	1787	1589	1	110.0	502.08
15	16	230	1	110.0	502.08
15	16	252	1	110.0	502.08
17	16	230	1	110.0	502.08
17	16	252	1	110.0	502.08
230	16	252	1	110.0	502.08
43	44	258	1	110.0	502.08
43	44	280	1	110.0	502.08
45	44	258	1	110.0	502.08
45	44	280	1	110.0	502.08
258	44	280	1	110.0	502.08
71	72	286	1	110.0	502.08
71	72	308	1	110.0	502.08
73	72	286	1	110.0	502.08
73	72	308	1	110.0	502.08
286	72	308	1	110.0	502.08
99	100	314	1	110.0	502.08
99	100	336	1	110.0	502.08
101	100	314	1	110.0	502.08
101	100	336	1	110.0	502.08
314	100	336	1	110.0	502.08
127	128	342	1	110.0	502.08
127	128	364	1	110.0	502.08
129	128	342	1	110.0	502.08
129	128	364	1	110.0	502.08
342	128	364	1	110.0	502.08
155	156	370	1	110.0	502.08
155	156	392	1	110.0	502.08
157	156	370	1	110.0	502.08
157	156	392	1	110.0	502.08
370	156	392	1	110.0	502.08
183	184	398	1	110.0	502.08
183	184	420	1	110.0	502.08
185	184	398	1	110.0	502.08
185	184	420	1	110.0	502.08
398	184	420	1	110.0	502.08
211	212	426	1	110.0	502.08
211	212	448	1	110.0	502.08
213	212	426	1	110.0	502.08
213	212	448	1	110.0	502.08
426	212	448	1	110.0	502.08
239	240	454	1	110.0	502.08
239	240	476	1	110.0	502.08
241	240	454	1	110.0	502.08
241	240	476	1	110.0	502.08
454	240	476	1	110.0	502.08
267	268	482	1	110.0	502.08
267	268	504	1	110.0	502.08
269	268	482	1	110.0	502.08
269	268	504	1	110.0	502.08
482	268	504	1	110.0	502.08
295	296	510	1	110.0	502.08
295	296	532	1	110.0	502.08
297	296	510	1	110.0	502.08
297	296	532	1	110.0	502.08
510	296	532	1	110.0	502.08
323	324	538	1	110.0	502.08
323	324	560	1	110.0	502.08
325	324	538	1	110.0	502.08
325	324	560	1	110.0	502.08
538	324	560	1	110.0	502.08
351	352	566	1	110.0	502.08
351	352	588	1	110.0	502.08
353	352	566	1	110.0	502.08
353	352	588	1	110.0	502.08
566	352	588	1	110.0	502.08
379	380	594	1	110.0	502.08
379	380	616	1	110.0	502.08
381	380	594	1	110.0	502.08
381	380	616	1	110.0	502.08
594	380	616	1	110.0	502.08
407	408	622	1	110.0	502.08
407	408	644	1	110.0	502.08
409	408	622	1	110.0	502.08
409	408	644	1	110.0	502.08
622	408	644	1	110.0	502.08
435	436	650	1	110.0	502.08
435	436	672	1	110.0	502.08
437	436	650	1	110.0	502.08
437	436	672	1	110.0	502.08
650	436	672	1	110.0	502.08
463	464	678	1	110.0	502.08
463	464	700	1	110.0	502.08
465	464	678	1	110.0	502.08
465	464	700	1	110.0	502.08
678	464	700	1	110.0	502.08
491	492	706	1	110.0	502.08
491	492	728	1	110.0	502.08
493	492	706	1	110.0	502.08
493	492	728	1	110.0	502.08
706	492	728	1	110.0	502.08
519	520	734	1	110.0	502.08
519	520	756	1	110.0	502.08
521	520	734	1	110.0	502.08
521	520	756	1	110.0	502.08
734	520	756	1	110.0	502.08
547	548	762	1	110.0	502.08
547	548	784	1	110.0	502.08
549	548	762	1	110.0	502.08
549	548	784	1	110.0	502.08
762	548	784	1	110.0	502.08
575	576	790	1	110.0	502.08
575	576	812	1	110.0	502.08
577	576	790	1	110.0	502.08
577	576	812	1	110.0	502.08
790	576	812	1	110.0	502.08
603	604	818	1	110.0	502.08
603	604	840	1	110.0	502.08
605	604	818	1	110.0	502.08
605	604	840	1	110.0	502.08
818	604	840	1	110.0	502.08
631	632	846	1	110.0	502.08
631	632	868	1	110.0	502.08
633	632	846	1	110.0	502.08
633	632	868	1	110.0	502.08
846	632	868	1	110.0	502.08
659	660	874	1	110.0	502.08
659	660	896	1	110.0	502.08
661	660	874	1	110.0	502.08
661	660	896	1	110.0	502.08
874	660	896	1	110.0	502.08
687	688	902	1	110.0	502.08
687	688	924	1	110.0	502.08
689	688	902	1	110.0	502.08
689	688	924	1	110.0	502.08
902	688	924	1	110.0	502.08
715	716	930	1	110.0	502.08
715	716	952	1	110.0	502.08
717	716	930	1	110.0	502.08
717	716	952	1	110.0	502.08
930	716	952	1	110.0	502.08
743	744	958	1	110.0	502.08
743	744	980	1	110.0	502.08
745	744	958	1	110.0	502.08
745	744	980	1	110.0	502.08
958	744	980	1	110.0	502.08
771	772	986	1	110.0	502.08
771	772	1008	1	110.0	502.08
773	772	986	1	110.0	502.08
773	772	1008	1	110.0	502.08
986	772	1008	1	110.0	502.08
799	800	1014	1	110.0	502.08
799	800	1036	1	110.0	502.08
801	800	1014	1	110.0	502.08
801	800	1036	1	110.0	502.08
1014	800	1036	1	110.0	502.08
827	828	1042	1	110.0	502.08
827	828	1064	1	110.0	502.08
829	828	1042	1	110.0	502.08
829	828	1064	1	110.0	502.08
1042	828	1064	1	110.0	502.08
855	856	1070	1	110.0	502.08
855	856	1092	1	110.0	502.08
857	856	1070	1	110.0	502.08
857	856	1092	1	110.0	502.08
1070	856	1092	1	110.0	502.08
883	884	1098	1	110.0	502.08
883	884	1120	1	110.0	502.08
885	884	1098	1	110.0	502.08
885	884	1120	1	110.0	502.08
1098	884	1120	1	110.0	502.08
911	912	1126	1	110.0	502.08
911	912	1148	1	110.0	502.08
913	912	1126	1	110.0	502.08
913	912	1148	1	110.0	502.08
1126	912	1148	1	110.0	502.08
939	940	1154	1	110.0	502.08
939	940	1176	1	110.0	502.08
941	940	1154	1	110.0	502.08
941	940	1176	1	110.0	502.08
1154	940	1176	1	110.0	502.08
967	968	1182	1	110.0	502.08
967	968	1204	1	110.0	502.08
969	968	1182	1	110.0	502.08
969	968	1204	1	110.0	502.08
1182	968	1204	1	110.0	502.08
995	996	1210	1	110.0	502.08
995	996	1232	1	110.0	502.08
997	996	1210	1	110.0	502.08
997	996	1232	1	110.0	502.08
1210	996	1232	1	110.0	502.08
1023	1024	1238	1	110.0	502.08
1023	1024	1260	1	110.0	502.08
1025	1024	1238	1	110.0	502.08
1025	1024	1260	1	110.0	502.08
1238	1024	1260	1	110.0	502.08
1051	1052	1266	1	110.0	502.08
1051	1052	1288	1	110.0	502.08
1053	1052	1266	1	110.0	502.08
1053	1052	1288	1	110.0	502.08
1266	1052	1288	1	110.0	502.08
1079	1080	1294	1	110.0	502.08
1079	1080	1316	1	110.0	502.08
1081	1080	1294	1	110.0	502.08
1081	1080	1316	1	110.0	502.08
1294	1080	1316	1	110.0	502.08
1107	1108	1322	1	110.0	502.08
1107	1108	1344	1	110.0	502.08
1109	1108	1322	1	110.0	502.08
1109	1108	1344	1	110.0	502.08
1322	1108	1344	1	110.0	502.08
1135	1136	1350	1	110.0	502.08
1135	1136	1372	1	110.0	502.08
1137	1136	1350	1	110.0	502.08
1137	1136	1372	1	110.0	502.08
1350	1136	1372	1	110.0	502.08
1163	1164	1378	1	110.0	502.08
1163	1164	1400	1	110.0	502.08
1165	1164	1378	1	110.0	502.08
1165	1164	1400	1	110.0	502.08
1378	1164	1400	1	110.0	502.08
1191	1192	1406	1	110.0	502.08
1191	1192	1428	1	110.0	502.08
1193	1192	1406	1	110.0	502.08
1193	1192	1428	1	110.0	502.08
1406	1192	1428	1	110.0	502.08
1219	1220	1434	1	110.0	502.08
1219	1220	1456	1	110.0	502.08
1221	1220	1434	1	110.0	502.08
1221	1220	1456	1	110.0	502.08
1434	1220	1456	1	110.0	502.08
1247	1248	1462	1	110.0	502.08
1247	1248	1484	1	110.0	502.08
1249	1248	1462	1	110.0	502.08
1249	1248	1484	1	110.0	502.08
1462	1248	1484	1	110.0	502.08
1275	1276	1490	1	110.0	502.08
1275	1276	1512	1	110.0	502.08
1277	1276	1490	1	110.0	502.08
1277	1276	1512	1	110.0	502.08
1490	1276	1512	1	110.0	502.08
1303	1304	1518	1	110.0	502.08
1303	1304	1540	1	110.0	502.08
1305	1304	1518	1	110.0	502.08
1305	1304	1540	1	110.0	502.08
1518	1304	1540	1	110.0	502.08
1331	1332	1546	1	110.0	502.08
1331	1332	1568	1	110.0	502.08
1333	1332	1546	1	110.0	502.08
1333	1332	1568	1	110.0	502.08
1546	1332	1568	1	110.0	502.08
1359	1360	1574	1	110.0	502.08
1359	1360	1596	1	110.0	502.08
1361	1360	1574	1	110.0	502.08
1361	1360	1596	1	110.0	502.08
1574	1360	1596	1	110.0	502.08
1387	1388	1602	1	110.0	502.08
1387	1388	1624	1	110.0	502.08
1389	1388	1602	1	110.0	502.08
1389	1388	1624	1	110.0	502.08
1602	1388	1624	1	110.0	502.08
1415	1416	1630	1	110.0	502.08
1415	1416	1652	1	110.0	502.08
1417	1416	1630	1	110.0	502.08
1417	1416	1652	1	110.0	502.08
1630	1416	1652	1	110.0	502.08
1443	1444	1658	1	110.0	502.08
1443	1444	1680	1	110.0	502.08
1445	1444	1658	1	110.0	502.08
1445	1444	1680	1	110.0	502.08
1658	1444	1680	1	110.0	502.08
1471	1472	1686	1	110.0	502.08
1471	1472	1708	1	110.0	502.08
1473	1472	1686	1	110.0	502.08
1473	1472	1708	1	110.0	502.08
1686	1472	1708	1	110.0	502.08
1499	1500	1714	1	110.0	502.08
1499	1500	1736	1	110.0	502.08
1501	1500	1714	1	110.0	502.08
1501	1500	1736	1	110.0	502.08
1714	1500	1736	1	110.0	502.08
1527	1528	1742	1	110.0	502.08
1527	1528	1764	1	110.0	502.08
1529	1528	1742	1	110.0	502.08
1529	1528	1764	1	110.0	502.08
1742	1528	1764	1	110.0	502.08
1555	1556	1770	1	110.0	502.08
1555	1556	1792	1	110.0	502.08
1557	1556	1770	1	110.0	502.08
1557	1556	1792	1	110.0	502.08
1770	1556	1792	1	110.0	502.08
1583	1584	6	1	110.0	502.08
1583	1584	28	1	110.0	502.08
1585	1584	6	1	110.0	502.08
1585	1584	28	1	110.0	502.08
6	1584	28	1	110.0	502.08
1611	1612	34	1	110.0	502.08
1611	1612	56	1	110.0	502.08
1613	1612	34	1	110.0	502.08
1613	1612	56	1	110.0	502.08
34	1612	56	1	110.0	502.08
1639	1640	62	1	110.0	502.08
1639	1640	84	1	110.0	502.08
1641	1640	62	1	110.0	502.08
1641	1640	84	1	110.0	502.08
62	1640	84	1	110.0	502.08
1667	1668	90	1	110.0	502.08
1667	1668	112	1	110.0	502.08
1669	1668	90	1	110.0	502.08
1669	1668	112	1	110.0	502.08
90	1668	112	1	110.0	502.08
1695	1696	118	1	110.0	502.08
1695	1696	140	1	110.0	502.08
1697	1696	118	1	110.0	502.08
1697	1696	140	1	110.0	502.08
118	1696	140	1	110.0	502.08
1723	1724	146	1	110.0	502.08
1723	1724	168	1	110.0	502.08
1725	1724	146	1	110.0	502.08
1725	1724	168	1	110.0	502.08
146	1724	168	1	110.0	502.08
1751	1752	174	1	110.0	502.08
1751	1752	196	1	110.0	502.08
1753	1752	174	1	110.0	502.08
1753	1752	196	1	110.0	502.08
174	1752	196	1	110.0	502.08
1779	1780	202	1	110.0	502.08
1779	1780	224	1	110.0	502.08
1781	1780	202	1	110.0	502.08
1781	1780	224	1	110.0	502.08
202	1780	224	1	110.0	502.08
4	1	1778	1	110.0	502.08
2	1	1778	1	110.000	502.080
3	1	1778	1	109.5	292.88
228	225	210	1	110.0	502.08
226	225	210	1	110.000	502.080
227	225	210	1	109.5	292.88
452	449	434	1	110.0	502.08
450	449	434	1	110.000	502.080
451	449	434	1	109.5	292.88
676	673	658	1	110.0	502.08
674	673	658	1	110.000	502.080
675	673	658	1	109.5	292.88
900	897	882	1	110.0	502.08
898	897	882	1	110.000	502.080
899	897	882	1	109.5	292.88
1124	1121	1106	1	110.0	502.08
1122	1121	1106	1	110.000	502.080
1123	1121	1106	1	109.5	292.88
1348	1345	1330	1	110.0	502.08
1346	1345	1330	1	110.000	502.080
1347	1345	1330	1	109.5	292.88
1572	1569	1554	1	110.0	502.08
1570	1569	1554	1	110.000	502.080
1571	1569	1554	1	109.5	292.88
32	29	1582	1	110.0	502.08
30	29	1582	1	110.000	502.080
31	29	1582	1	109.5	292.88
60	57	1610	1	110.0	502.08
58	57	1610	1	110.000	502.080
59	57	1610	1	109.5	292.88
88	85	1638	1	110.0	502.08
86	85	1638	1	110.000	502.080
87	85	1638	1	109.5	292.88
116	113	1666	1	110.0	502.08
114	113	1666	1	110.000	502.080
115	113	1666	1	109.5	292.88
144	141	1694	1	110.0	502.08
142	141	1694	1	110.000	502.080
143	141	1694	1	109.5	292.88
172	169	1722	1	110.0	502.08
170	169	1722	1	110.000	502.080
171	169	1722	1	109.5	292.88
200	197	1750	1	110.0	502.08
198	197	1750	1	110.000	502.080
199	197	1750	1	109.5	292.88
256	253	14	1	110.0	502.08
254	253	14	1	110.000	502.080
255	253	14	1	109.5	292.88
13	14	253	1	180.0	167.36
284	281	42	1	110.0	502.08
282	281	42	1	110.000	502.080
283	281	42	1	109.5	292.88
41	42	281	1	180.0	167.36
312	309	70	1	110.0	502.08
310	309	70	1	110.000	502.080
311	309	70	1	109.5	292.88
69	70	309	1	180.0	167.36
340	337	98	1	110.0	502.08
338	337	98	1	110.000	502.080
339	337	98	1	109.5	292.88
97	98	337	1	180.0	167.36
368	365	126	1	110.0	502.08
366	365	126	1	110.000	502.080
367	365	126	1	109.5	292.88
125	126	365	1	180.0	167.36
396	393	154	1	110.0	502.08
394	393	154	1	110.000	502.080
395	393	154	1	109.5	292.88
153	154	393	1	180.0	167.36
424	421	182	1	110.0	502.08
422	421	182	1	110.000	502.080
423	421	182	1	109.5	292.88
181	182	421	1	180.0	167.36
480	477	238	1	110.0	502.08
478	477	238	1	110.000	502.080
479	477	238	1	109.5	292.88
237	238	477	1	180.0	167.36
508	505	266	1	110.0	502.08
506	505	266	1	110.000	502.080
507	505	266	1	109.5	292.88
265	266	505	1	180.0	167.36
536	533	294	1	110.0	502.08
534	533	294	1	110.000	502.080
535	533	294	1	109.5	292.88
293	294	533	1	180.0	167.36
564	561	322	1	110.0	502.08
562	561	322	1	110.000	502.080
563	561	322	1	109.5	292.88
321	322	561	1	180.0	167.36
592	589	350	1	110.0	502.08
590	589	350	1	110.000	502.080
591	589	350	1	109.5	292.88
349	350	589	1	180.0	167.36
620	617	378	1	110.0	502.08
618	617	378	1	110.000	502.080
619	617	378	1	109.5	292.88
377	378	617	1	180.0	167.36
648	645	406	1	110.0	502.08
646	645	406	1	110.000	502.080
647	645	406	1	109.5	292.88
405	406	645	1	180.0	167.36
704	701	462	1	110.0	502.08
702	701	462	1	110.000	502.080
703	701	462	1	109.5	292.88
461	462	701	1	180.0	167.36
732	729	490	1	110.0	502.08
730	729	490	1	110.000	502.080
731	729	490	1	109.5	292.88
489	490	729	1	180.0	167.36
760	757	518	1	110.0	502.08
758	757	518	1	110.000	502.080
759	757	518	1	109.5	292.88
517	518	757	1	180.0	167.36
788	785	546	1	110.0	502.08
786	785	546	1	110.000	502.080
787	785	546	1	109.5	292.88
545	546	785	1	180.0	167.36
816	813	574	1	110.0	502.08
814	813	574	1	110.000	502.080
815	813	574	1	109.5	292.88
573	574	813	1	180.0	167.36
844	841	602	1	110.0	502.08
842	841	602	1	110.000	502.080
843	841	602	1	109.5	292.88
601	602	841	1	180.0	167.36
872	869	630	1	110.0	502.08
870	869	630	1	110.000	502.080
871	869	630	1	109.5	292.88
629	630	869	1	180.0	167.36
928	925	686	1	110.0	502.08
926	925	686	1	110.000	502.080
927	925	686	1	109.5	292.88
685	686	925	1	180.0	167.36
956	953	714	1	110.0	502.08
954	953	714	1	110.000	502.080
955	953	714	1	109.5	292.88
713	714	953	1	180.0	167.36
984	981	742	1	110.0	502.08
982	981	742	1	110.000	502.080
983	981	742	1	109.5	292.88
741	742	981	1	180.0	167.36
1012	1009	770	1	110.0	502.08
1010	1009	770	1	110.000	502.080
1011	1009	770	1	109.5	292.88
769	770	1009	1	180.0	167.36
1040	1037	798	1	110.0	502.08
1038	1037	798	1	110.000	502.080
1039	1037	798	1	109.5	292.88
797	798	1037	1	180.0	167.36
1068	1065	826	1	110.0	502.08
1066	1065	826	1	110.000	502.080
1067	1065	826	1	109.5	292.88
825	826	1065	1	180.0	167.36
1096	1093	854	1	110.0	502.08
1094	1093	854	1	110.000	502.080
1095	1093	854	1	109.5	292.88
853	854	1093	1	180.0	167.36
1152	1149	910	1	110.0	502.08
1150	1149	910	1	110.000	502.080
1151	1149	910	1	109.5	292.88
909	910	1149	1	180.0	167.36
1180	1177	938	1	110.0	502.08
1178	1177	938	1	110.000	502.080
1179	1177	938	1	109.5	292.88
937	938	1177	1	180.0	167.36
1208	1205	966	1	110.0	502.08
1206	1205	966	1	110.000	502.080
1207	1205	966	1	109.5	292.88
965	966	1205	1	180.0	167.36
1236	1233	994	1	110.0	502.08
1234	1233	994	1	110.000	502.080
1235	1233	994	1	109.5	292.88
993	994	1233	1	180.0	167.36
1264	1261	1022	1	110.0	502.08
1262	1261	1022	1	110.000	502.080
1263	1261	1022	1	109.5	292.88
1021	1022	1261	1	180.0	167.36
1292	1289	1050	1	110.0	502.08
1290	1289	1050	1	110.000	502.080
1291	1289	1050	1	109.5	292.88
1049	1050	1289	1	180.0	167.36
1320	1317	1078	1	110.0	502.08
1318	1317	1078	1	110.000	502.080
1319	1317	1078	1	109.5	292.88
1077	1078	1317	1	180.0	167.36
1376	1373	1134	1	110.0	502.08
1374	1373	1134	1	110.000	502.080
1375	1373	1134	1	109.5	292.88
1133	1134	1373	1	180.0	167.36
1404	1401	1162	1	110.0	502.08
1402	1401	1162	1	110.000	502.080
1403	1401	1162	1	109.5	292.88
1161	1162	1401	1	180.0	167.36
1432	1429	1190	1	110.0	502.08
1430	1429	1190	1	110.000	502.080
1431	1429	1190	1	109.5	292.88
1189	1190	1429	1	180.0	167.36
1460	1457	1218	1	110.0	502.08
1458	1457	1218	1	110.000	502.080
1459	1457	1218	1	109.5	292.88
1217	1218	1457	1	180.0	167.36
1488	1485	1246	1	110.0	502.08
1486	1485	1246	1	110.000	502.080
1487	1485	1246	1	109.5	292.88
1245	1246	1485	1	180.0	167.36
1516	1513	1274	1	110.0	502.08
1514	1513	1274	1	110.000	502.080
1515	1513	1274	1	109.5	292.88
1273	1274	1513	1	180.0	167.36
1544	1541	1302	1	110.0	502.08
1542	1541	1302	1	110.000	502.080
1543	1541	1302	1	109.5	292.88
1301	1302	1541	1	180.0	167.36
1600	1597	1358	1	110.0	502.08
1598	1597	1358	1	110.000	502.080
1599	1597	1358	1	109.5	292.88
1357	1358	1597	1	180.0	167.36
1628	1625	1386	1	110.0	502.08
1626	1625	1386	1	110.000	502.080
1627	1625	1386	1	109.5	292.88
1385	1386	1625	1	180.0	167.36
1656	1653	1414	1	110.0	502.08
1654	1653	1414	1	110.000	502.080
1655	1653	1414	1	109.5	292.88
1413	1414	1653	1	180.0	167.36
1684	1681	1442	1	110.0	502.08
1682	1681	1442	1	110.000	502.080
1683	1681	1442	1	109.5	292.88
1441	1442	1681	1	180.0	167.36
1712	1709	1470	1	110.0	502.08
1710	1709	1470	1	110.000	502.080
1711	1709	1470	1	109.5	292.88
1469	1470	1709	1	180.0	167.36
1740	1737	1498	1	110.0	502.08
1738	1737	1498	1	110.000	502.080
1739	1737	1498	1	109.5	292.88
1497	1498	1737	1	180.0	167.36
1768	1765	1526	1	110.0	502.08
1766	1765	1526	1	110.000	502.080
1767	1765	1526	1	109.5	292.88
1525	1526	1765	1	180.0	167.36
1	3	1793	1	109.5	292.88
9	11	1794	1	109.5	292.88
9	10	1795	1	109.5	292.88
29	31	1796	1	109.5	292.88
37	39	1797	1	109.5	292.88
37	38	1798	1	109.5	292.88
57	59	1799	1	109.5	292.88
65	67	1800	1	109.5	292.88
65	66	1801	1	109.5	292.88
85	87	1802	1	109.5	292.88
93	95	1803	1	109.5	292.88
93	94	1804	1	109.5	292.88
113	115	1805	1	109.5	292.88
121	123	1806	1	109.5	292.88
121	122	1807	1	109.5	292.88
141	143	1808	1	109.5	292.88
149	151	1809	1	109.5	292.88
149	150	1810	1	109.5	292.88
169	171	1811	1	109.5	292.88
177	179	1812	1	109.5	292.88
177	178	1813	1	109.5	292.88
197	199	1814	1	109.5	292.88
205	207	1815	1	109.5	292.88
205	206	1816	1	109.5	292.88
225	227	1817	1	109.5	292.88
233	235	1818	1	109.5	292.88
233	234	1819	1	109.5	292.88
253	255	1820	1	109.5	292.88
261	263	1821	1	109.5	292.88
261	262	1822	1	109.5	292.88
281	283	1823	1	109.5	292.88
289	291	1824	1	109.5	292.88
289	290	1825	1	109.5	292.88
309	311	1826	1	109.5	292.88
317	319	1827	1	109.5	292.88
317	318	1828	1	109.5	292.88
337	339	1829	1	109.5	292.88
345	347	1830	1	109.5	292.88
345	346	1831	1	109.5	292.88
365	367	1832	1	109.5	292.88
373	375	1833	1	109.5	292.88
373	374	1834	1	109.5	292.88
393	395	1835	1	109.5	292.88
401	403	1836	1	109.5	292.88
401	402	1837	1	109.5	292.88
421	423	1838	1	109.5	292.88
429	431	1839	1	109.5	292.88
429	430	1840	1	109.5	292.88
449	451	1841	1	109.5	292.88
457	459	1842	1	109.5	292.88
457	458	1843	1	109.5	292.88
477	479	1844	1	109.5	292.88
485	487	1845	1	109.5	292.88
485	486	1846	1	109.5	292.88
505	507	1847	1	109.5	292.88
513	515	1848	1	109.5	292.88
513	514	1849	1	109.5	292.88
533	535	1850	1	109.5	292.88
541	543	1851	1	109.5	292.88
541	542	1852	1	109.5	292.88
561	563	1853	1	109.5	292.88
569	571	1854	1	109.5	292.88
569	570	1855	1	109.5	292.88
589	591	1856	1	109.5	292.88
597	599	1857	1	109.5	292.88
597	598	1858	1	109.5	292.88
617	619	1859	1	109.5	292.88
625	627	1860	1	109.5	292.88
625	626	1861	1	109.5	292.88
645	647	1862	1	109.5	292.88
653	655	1863	1	109.5	292.88
653	654	1864	1	109.5	292.88
673	675	1865	1	109.5	292.88
681	683	1866	1	109.5	292.88
681	682	1867	1	109.5	292.88
701	703	1868	1	109.5	292.88
709	711	1869	1	109.5	292.88
709	710	1870	1	109.5	292.88
729	731	1871	1	109.5	292.88
737	739	1872	1	109.5	292.88
737	738	1873	1	109.5	292.88
757	759	1874	1	109.5	292.88
765	767	1875	1	109.5	292.88
765	766	1876	1	109.5	292.88
785	787	1877	1	109.5	292.88
793	795	1878	1	109.5	292.88
793	794	1879	1	109.5	292.88
813	815	1880	1	109.5	292.88
821	823	1881	1	109.5	292.88
821	822	1882	1	109.5	292.88
841	843	1883	1	109.5	292.88
849	851	1884	1	109.5	292.88
849	850	1885	1	109.5	292.88
869	871	1886	1	109.5	292.88
877	879	1887	1	109.5	292.88
877	878	1888	1	109.5	292.88
897	899	1889	1	109.5	292.88
905	907	1890	1	109.5	292.88
905	906	1891	1	109.5	292.88
925	927	1892	1	109.5	292.88
933	935	1893	1	109.5	292.88
933	934	1894	1	109.5	292.88
953	955	1895	1	109.5	292.88
961	963	1896	1	109.5	292.88
961	962	1897	1	109.5	292.88
981	983	1898	1	109.5	292.88
989	991	1899	1	109.5	292.88
989	990	1900	1	109.5	292.88
1009	1011	1901	1	109.5	292.88
1017	1019	1902	1	109.5	292.88
1017	1018	1903	1	109.5	292.88
1037	1039	1904	1	109.5	292.88
1045	1047	1905	1	109.5	292.88
1045	1046	1906	1	109.5	292.88
1065	1067	1907	1	109.5	292.88
1073	1075	1908	1	109.5	292.88
1073	1074	1909	1	109.5	292.88
1093	1095	1910	1	109.5	292.88
1101	1103	1911	1	109.5	292.88
1101	1102	1912	1	109.5	292.88
1121	1123	1913	1	109.5	292.88
1129	1131	1914	1	109.5	292.88
1129	1130	1915	1	109.5	292.88
1149	1151	1916	1	109.5	292.88
1157	1159	1917	1	109.5	292.88
1157	1158	1918	1	109.5	292.88
1177	1179	1919	1	109.5	292.88
1185	1187	1920	1	109.5	292.88
1185	1186	1921	1	109.5	292.88
1205	1207	1922	1	109.5	292.88
1213	1215	1923	1	109.5	292.88
1213	1214	1924	1	109.5	292.88
1233	1235	1925	1	109.5	292.88
1241	1243	1926	1	109.5	292.88
1241	1242	1927	1	109.5	292.88
1261	1263	1928	1	109.5	292.88
1269	1271	1929	1	109.5	292.88
1269	1270	1930	1	109.5	292.88
1289	1291	1931	1	109.5	292.88
1297	1299	1932	1	109.5	292.88
1297	1298	1933	1	109.5	292.88
1317	1319	1934	1	109.5	292.88
1325	1327	1935	1	109.5	292.88
1325	1326	1936	1	109.5	292.88
1345	1347	1937	1	109.5	292.88
1353	1355	1938	1	109.5	292.88
1353	1354	1939	1	109.5	292.88
1373	1375	1940	1	109.5	292.88
1381	1383	1941	1	109.5	292.88
1381	1382	1942	1	109.5	292.88
1401	1403	1943	1	109.5	292.88
1409	1411	1944	1	109.5	292.88
1409	1410	1945	1	109.5	292.88
1429	1431	1946	1	109.5	292.88
1437	1439	1947	1	109.5	292.88
1437	1438	1948	1	109.5	292.88
1457	1459	1949	1	109.5	292.88
1465	1467	1950	1	109.5	292.88
1465	1466	1951	1	109.5	292.88
1485	1487	1952	1	109.5	292.88
1493	1495	1953	1	109.5	292.88
1493	1494	1954	1	109.5	292.88
1513	1515	1955	1	109.5	292.88
1521	1523	1956	1	109.5	292.88
1521	1522	1957	1	109.5	292.88
1541	1543	1958	1	109.5	292.88
1549	1551	1959	1	109.5	292.88
1549	1550	1960	1	109.5	292.88
1569	1571	1961	1	109.5	292.88
1577	1579	1962	1	109.5	292.88
1577	1578	1963	1	109.5	292.88
1597	1599	1964	1	109.5	292.88
1605	1607	1965	1	109.5	292.88
1605	1606	1966	1	109.5	292.88
1625	1627	1967	1	109.5	292.88
1633	1635	1968	1	109.5	292.88
1633	1634	1969	1	109.5	292.88
1653	1655	1970	1	109.5	292.88
1661	1663	1971	1	109.5	292.88
1661	1662	1972	1	109.5	292.88
1681	1683	1973	1	109.5	292.88
1689	1691	1974	1	109.5	292.88
1689	1690	1975	1	109.5	292.88
1709	1711	1976	1	109.5	292.88
1717	1719	1977	1	109.5	292.88
1717	1718	1978	1	109.5	292.88
1737	1739	1979	1	109.5	292.88
1745	1747	1980	1	109.5	292.88
1745	1746	1981	1	109.5	292.88
1765	1767	1982	1	109.5	292.88
1773	1775	1983	1	109.5	292.88
1773	1774	1984	1	109.5	292.88
[ dihedrals ] 
; IMPROPER DIHEDRAL ANGLES
;  ai    aj    ak    al funct            c0            c1            c2            c3            c4            c5
[ dihedrals ]
; PROPER DIHEDRAL ANGLES
;  ai    aj    ak    al funct            c0            c1            c2            c3            c4            c5
