;SiO2 001 face - NGS topology developed by ChamikaraK University of California Merced | 

[ atomtypes ]
opls_826	H826	1.0080	0.000	A	2.50000E-01	1.25520E-01
opls_810	H810	1.0080	0.000	A	2.50000E-01	1.25520E-01
opls_800	Si800	28.0850	0.000	A	4.00000E-01	4.18400E-01
opls_827	H827	1.0080	0.000	A	2.50000E-01	1.25520E-01
opls_801	H801	1.0080	0.000	A	2.50000E-01	1.25520E-01
opls_820	H820	1.0080	0.000	A	2.50000E-01	1.25520E-01
opls_811	H811	1.0080	0.000	A	2.50000E-01	1.25520E-01
opls_803	H803	1.0080	0.000	A	2.50000E-01	1.25520E-01
opls_808	O808	15.9990	0.000	A	2.90000E-01	5.85760E-01
opls_802	H802	1.0080	0.000	A	2.50000E-01	1.25520E-01
opls_819	H819	1.0080	0.000	A	2.50000E-01	1.25520E-01
opls_809	O809	15.9990	0.000	A	3.12000E-01	7.11280E-01
opls_806	H808	1.0080	0.000	A	0.00000E+00	0.00000E+00
						
opls_899	H899	1.0080	0.000	A	2.42000E-01	1.25520E-01
opls_new	DUM1	0.0000	0.000	A	0.00000E-01	0.00000E-01
opls_843	C843	12.0110	0.000	A	3.55000E-01	2.92880E-01
opls_861	H861	1.0080	0.000	A	2.50000E-01	1.25520E-01
opls_880	H880	1.0080	0.000	A	2.50000E-01	1.25520E-01
opls_895	H895	1.0080	0.000	A	2.50000E-01	1.25520E-01
opls_849	F849	18.9984	0.000	A	2.90000E-01	2.51040E-01
opls_888	H888	1.0080	0.000	A	2.50000E-01	1.25520E-01
opls_812	C812	12.0110	0.000	A	3.55000E-01	2.92880E-01
opls_822	C822	12.0110	0.000	A	3.55000E-01	3.17984E-01
opls_865	H865	1.0080	0.000	A	2.50000E-01	1.25520E-01
opls_810	C810	12.0110	0.000	A	3.55000E-01	2.92880E-01
opls_800	C800	12.0110	0.000	A	3.50000E-01	2.76144E-01
opls_815	C815	12.0110	0.000	A	3.55000E-01	2.92880E-01
opls_834	C834	12.0110	0.000	A	3.55000E-01	2.92880E-01
opls_897	H897	1.0080	0.000	A	2.50000E-01	1.25520E-01
opls_857	C857	12.0110	0.000	A	3.55000E-01	2.92880E-01
opls_855	C855	12.0110	0.000	A	3.50000E-01	2.76144E-01
opls_829	C829	12.0110	0.000	A	3.55000E-01	3.17984E-01
opls_853	C853	12.0110	0.000	A	3.50000E-01	2.76144E-01
opls_879	H879	1.0080	0.000	A	2.42000E-01	1.25520E-01
opls_856	C856	12.0110	0.000	A	3.50000E-01	2.76144E-01
opls_887	H887	1.0080	0.000	A	2.42000E-01	1.25520E-01
opls_805	C805	12.0110	0.000	A	3.55000E-01	2.92880E-01
opls_817	C817	12.0110	0.000	A	3.55000E-01	2.92880E-01
opls_885	H885	1.0080	0.000	A	2.42000E-01	1.25520E-01
opls_866	H866	1.0080	0.000	A	2.42000E-01	1.25520E-01
opls_898	H898	1.0080	0.000	A	2.42000E-01	1.25520E-01
opls_864	H864	1.0080	0.000	A	2.50000E-01	1.25520E-01
opls_840	O840	15.9990	0.000	A	2.90000E-01	5.85760E-01
opls_821	C821	12.0110	0.000	A	3.55000E-01	2.92880E-01
opls_809	C809	12.0110	0.000	A	3.55000E-01	2.92880E-01
opls_819	C819	12.0110	0.000	A	3.55000E-01	2.92880E-01
opls_816	C816	12.0110	0.000	A	3.55000E-01	2.92880E-01
opls_831	C831	12.0110	0.000	A	3.55000E-01	3.17984E-01
opls_832	C832	12.0110	0.000	A	3.30000E-01	2.76144E-01
opls_830	C830	12.0110	0.000	A	3.55000E-01	3.17984E-01
opls_881	H881	1.0080	0.000	A	2.50000E-01	1.25520E-01
opls_833	N833	14.0070	0.000	A	3.20000E-01	7.11280E-01
opls_852	C852	12.0110	0.000	A	3.50000E-01	2.76144E-01
opls_874	H874	1.0080	0.000	A	2.42000E-01	1.25520E-01
opls_876	H876	1.0080	0.000	A	2.42000E-01	1.25520E-01
opls_889	H889	1.0080	0.000	A	2.50000E-01	1.25520E-01
opls_851	F851	18.9984	0.000	A	2.90000E-01	2.51040E-01
opls_863	H863	1.0080	0.000	A	2.50000E-01	1.25520E-01
opls_893	H893	1.0080	0.000	A	2.50000E-01	1.25520E-01
opls_850	F850	18.9984	0.000	A	2.90000E-01	2.51040E-01
opls_892	H892	1.0080	0.000	A	2.50000E-01	1.25520E-01
opls_846	C846	12.0110	0.000	A	3.55000E-01	2.92880E-01
opls_844	C844	12.0110	0.000	A	3.55000E-01	2.92880E-01
opls_839	N839	14.0070	0.000	A	3.20000E-01	7.11280E-01
opls_867	H867	1.0080	0.000	A	2.42000E-01	1.25520E-01
opls_862	H862	1.0080	0.000	A	2.50000E-01	1.25520E-01
opls_890	H890	1.0080	0.000	A	2.50000E-01	1.25520E-01
opls_847	C847	12.0110	0.000	A	3.55000E-01	2.92880E-01
opls_860	H860	1.0080	0.000	A	2.50000E-01	1.25520E-01
opls_803	C803	12.0110	0.000	A	3.50000E-01	2.76144E-01
opls_875	H875	1.0080	0.000	A	2.42000E-01	1.25520E-01
opls_824	C824	12.0110	0.000	A	3.55000E-01	3.17984E-01
opls_818	C818	12.0110	0.000	A	3.55000E-01	2.92880E-01
opls_825	C825	12.0110	0.000	A	3.55000E-01	3.17984E-01
opls_841	C841	12.0110	0.000	A	3.50000E-01	2.76144E-01
opls_848	C848	12.0110	0.000	A	3.50000E-01	2.76144E-01
opls_838	C838	12.0110	0.000	A	3.30000E-01	2.76144E-01
opls_868	H868	1.0080	0.000	A	2.42000E-01	1.25520E-01
opls_854	C854	12.0110	0.000	A	3.50000E-01	2.76144E-01
opls_836	C836	12.0110	0.000	A	3.30000E-01	2.76144E-01
opls_827	C827	12.0110	0.000	A	3.55000E-01	3.17984E-01
opls_828	C828	12.0110	0.000	A	3.55000E-01	3.17984E-01
opls_896	H896	1.0080	0.000	A	2.50000E-01	1.25520E-01
opls_807	C807	12.0110	0.000	A	3.55000E-01	2.92880E-01
opls_820	C820	12.0110	0.000	A	3.55000E-01	2.92880E-01
opls_826	C826	12.0110	0.000	A	3.55000E-01	3.17984E-01
opls_804	O804	15.9990	0.000	A	2.90000E-01	5.85760E-01
opls_808	C808	12.0110	0.000	A	3.55000E-01	2.92880E-01
opls_845	C845	12.0110	0.000	A	3.55000E-01	2.92880E-01
opls_801	N801	14.0070	0.000	A	3.30000E-01	7.11280E-01
opls_878	H878	1.0080	0.000	A	2.50000E-01	1.25520E-01
opls_858	C858	12.0110	0.000	A	3.55000E-01	2.92880E-01
opls_814	C814	12.0110	0.000	A	3.55000E-01	2.92880E-01
opls_837	N837	14.0070	0.000	A	3.20000E-01	7.11280E-01
opls_802	C802	12.0110	0.000	A	3.50000E-01	2.76144E-01
opls_886	H886	1.0080	0.000	A	2.42000E-01	1.25520E-01
opls_883	H883	1.0080	0.000	A	2.42000E-01	1.25520E-01
opls_869	H869	1.0080	0.000	A	2.42000E-01	1.25520E-01
opls_877	H877	1.0080	0.000	A	2.50000E-01	1.25520E-01
opls_872	H872	1.0080	0.000	A	2.42000E-01	1.25520E-01
opls_870	H870	1.0080	0.000	A	0.00000E+00	0.00000E+00
opls_806	C806	12.0110	0.000	A	3.55000E-01	2.92880E-01
opls_811	C811	12.0110	0.000	A	3.55000E-01	2.92880E-01
opls_823	C823	12.0110	0.000	A	3.55000E-01	3.17984E-01
opls_871	H871	1.0080	0.000	A	2.42000E-01	1.25520E-01
opls_894	H894	1.0080	0.000	A	2.50000E-01	1.25520E-01
opls_813	O813	15.9990	0.000	A	3.12000E-01	7.11280E-01
opls_891	H891	1.0080	0.000	A	2.50000E-01	1.25520E-01
opls_873	H873	1.0080	0.000	A	2.42000E-01	1.25520E-01
opls_884	H884	1.0080	0.000	A	2.42000E-01	1.25520E-01
opls_835	C835	12.0110	0.000	A	3.55000E-01	3.17984E-01
opls_882	H882	1.0080	0.000	A	2.50000E-01	1.25520E-01
opls_859	H859	1.0080	0.000	A	2.50000E-01	1.25520E-01
opls_842	C842	12.0110	0.000	A	3.55000E-01	2.92880E-01
[ moleculetype ]
; Name               nrexcl
SiO                   3

[ atoms ]
1	opls_800	1	SiO	Si0	1	0.0	28.0850
2	opls_809	1	SiO	O0X	1	0.0	15.9990
3	opls_809	1	SiO	O11	1	0.0	15.9990
4	opls_808	1	SiO	O04	1	0.0	15.9990
5	opls_800	1	SiO	Si1	1	0.0	28.0850
6	opls_808	1	SiO	O05	1	0.0	15.9990
7	opls_808	1	SiO	O06	1	0.0	15.9990
8	opls_808	1	SiO	O08	1	0.0	15.9990
9	opls_800	1	SiO	Si2	1	0.0	28.0850
10	opls_809	1	SiO	O13	1	0.0	15.9990
11	opls_809	1	SiO	O14	1	0.0	15.9990
12	opls_808	1	SiO	O0C	1	0.0	15.9990
13	opls_800	1	SiO	Si3	1	0.0	28.0850
14	opls_808	1	SiO	O09	1	0.0	15.9990
15	opls_808	1	SiO	O0F	1	0.0	15.9990
16	opls_800	1	SiO	Si4	1	0.0	28.0850
17	opls_808	1	SiO	O0H	1	0.0	15.9990
18	opls_800	1	SiO	Si5	1	0.0	28.0850
19	opls_819	1	SiO	H0J	1	0.0	1.0080
20	opls_820	1	SiO	H0K	1	0.0	1.0080
21	opls_808	1	SiO	O10	1	0.0	15.9990
22	opls_808	1	SiO	O0N	1	0.0	15.9990
23	opls_800	1	SiO	Si6	1	0.0	28.0850
24	opls_808	1	SiO	O0P	1	0.0	15.9990
25	opls_800	1	SiO	Si7	1	0.0	28.0850
26	opls_826	1	SiO	H0R	1	0.0	1.0080
27	opls_808	1	SiO	H0S	1	0.0	1.0080
28	opls_808	1	SiO	O11	1	0.0	15.9990
29	opls_800	1	SiO	Si0	1	0.0	28.0850
30	opls_809	1	SiO	O0X	1	0.0	15.9990
31	opls_809	1	SiO	O11	1	0.0	15.9990
32	opls_808	1	SiO	O04	1	0.0	15.9990
33	opls_800	1	SiO	Si1	1	0.0	28.0850
34	opls_808	1	SiO	O05	1	0.0	15.9990
35	opls_808	1	SiO	O06	1	0.0	15.9990
36	opls_808	1	SiO	O08	1	0.0	15.9990
37	opls_800	1	SiO	Si2	1	0.0	28.0850
38	opls_809	1	SiO	O13	1	0.0	15.9990
39	opls_809	1	SiO	O14	1	0.0	15.9990
40	opls_808	1	SiO	O0C	1	0.0	15.9990
41	opls_800	1	SiO	Si3	1	0.0	28.0850
42	opls_808	1	SiO	O09	1	0.0	15.9990
43	opls_808	1	SiO	O0F	1	0.0	15.9990
44	opls_800	1	SiO	Si4	1	0.0	28.0850
45	opls_808	1	SiO	O0H	1	0.0	15.9990
46	opls_800	1	SiO	Si5	1	0.0	28.0850
47	opls_819	1	SiO	H0J	1	0.0	1.0080
48	opls_820	1	SiO	H0K	1	0.0	1.0080
49	opls_808	1	SiO	O10	1	0.0	15.9990
50	opls_808	1	SiO	O0N	1	0.0	15.9990
51	opls_800	1	SiO	Si6	1	0.0	28.0850
52	opls_808	1	SiO	O0P	1	0.0	15.9990
53	opls_800	1	SiO	Si7	1	0.0	28.0850
54	opls_826	1	SiO	H0R	1	0.0	1.0080
55	opls_808	1	SiO	H0S	1	0.0	1.0080
56	opls_808	1	SiO	O11	1	0.0	15.9990
57	opls_800	1	SiO	Si0	1	0.0	28.0850
58	opls_809	1	SiO	O0X	1	0.0	15.9990
59	opls_809	1	SiO	O11	1	0.0	15.9990
60	opls_808	1	SiO	O04	1	0.0	15.9990
61	opls_800	1	SiO	Si1	1	0.0	28.0850
62	opls_808	1	SiO	O05	1	0.0	15.9990
63	opls_808	1	SiO	O06	1	0.0	15.9990
64	opls_808	1	SiO	O08	1	0.0	15.9990
65	opls_800	1	SiO	Si2	1	0.0	28.0850
66	opls_809	1	SiO	O13	1	0.0	15.9990
67	opls_809	1	SiO	O14	1	0.0	15.9990
68	opls_808	1	SiO	O0C	1	0.0	15.9990
69	opls_800	1	SiO	Si3	1	0.0	28.0850
70	opls_808	1	SiO	O09	1	0.0	15.9990
71	opls_808	1	SiO	O0F	1	0.0	15.9990
72	opls_800	1	SiO	Si4	1	0.0	28.0850
73	opls_808	1	SiO	O0H	1	0.0	15.9990
74	opls_800	1	SiO	Si5	1	0.0	28.0850
75	opls_819	1	SiO	H0J	1	0.0	1.0080
76	opls_820	1	SiO	H0K	1	0.0	1.0080
77	opls_808	1	SiO	O10	1	0.0	15.9990
78	opls_808	1	SiO	O0N	1	0.0	15.9990
79	opls_800	1	SiO	Si6	1	0.0	28.0850
80	opls_808	1	SiO	O0P	1	0.0	15.9990
81	opls_800	1	SiO	Si7	1	0.0	28.0850
82	opls_826	1	SiO	H0R	1	0.0	1.0080
83	opls_808	1	SiO	H0S	1	0.0	1.0080
84	opls_808	1	SiO	O11	1	0.0	15.9990
85	opls_800	1	SiO	Si0	1	0.0	28.0850
86	opls_809	1	SiO	O0X	1	0.0	15.9990
87	opls_809	1	SiO	O11	1	0.0	15.9990
88	opls_808	1	SiO	O04	1	0.0	15.9990
89	opls_800	1	SiO	Si1	1	0.0	28.0850
90	opls_808	1	SiO	O05	1	0.0	15.9990
91	opls_808	1	SiO	O06	1	0.0	15.9990
92	opls_808	1	SiO	O08	1	0.0	15.9990
93	opls_800	1	SiO	Si2	1	0.0	28.0850
94	opls_809	1	SiO	O13	1	0.0	15.9990
95	opls_809	1	SiO	O14	1	0.0	15.9990
96	opls_808	1	SiO	O0C	1	0.0	15.9990
97	opls_800	1	SiO	Si3	1	0.0	28.0850
98	opls_808	1	SiO	O09	1	0.0	15.9990
99	opls_808	1	SiO	O0F	1	0.0	15.9990
100	opls_800	1	SiO	Si4	1	0.0	28.0850
101	opls_808	1	SiO	O0H	1	0.0	15.9990
102	opls_800	1	SiO	Si5	1	0.0	28.0850
103	opls_819	1	SiO	H0J	1	0.0	1.0080
104	opls_820	1	SiO	H0K	1	0.0	1.0080
105	opls_808	1	SiO	O10	1	0.0	15.9990
106	opls_808	1	SiO	O0N	1	0.0	15.9990
107	opls_800	1	SiO	Si6	1	0.0	28.0850
108	opls_808	1	SiO	O0P	1	0.0	15.9990
109	opls_800	1	SiO	Si7	1	0.0	28.0850
110	opls_826	1	SiO	H0R	1	0.0	1.0080
111	opls_808	1	SiO	H0S	1	0.0	1.0080
112	opls_808	1	SiO	O11	1	0.0	15.9990
113	opls_806	1	SiO2	Ha8	1	0.0	1.008
114	opls_806	1	SiO2	Ha8	1	0.0	1.008
115	opls_806	1	SiO2	Ha8	1	0.0	1.008
116	opls_806	1	SiO2	Ha8	1	0.0	1.008
117	opls_806	1	SiO2	Ha8	1	0.0	1.008
118	opls_806	1	SiO2	Ha8	1	0.0	1.008
119	opls_806	1	SiO2	Ha8	1	0.0	1.008
120	opls_806	1	SiO2	Ha8	1	0.0	1.008
121	opls_806	1	SiO2	Ha8	1	0.0	1.008
122	opls_806	1	SiO2	Ha8	1	0.0	1.008
123	opls_806	1	SiO2	Ha8	1	0.0	1.008
124	opls_806	1	SiO2	Ha8	1	0.0	1.008
125	opls_800	1	NGb	C00	1	0.0	12.0110
126	opls_801	1	NGb	N01	1	0.0	14.0070
127	opls_802	1	NGb	C02	1	0.0	12.0110
128	opls_803	1	NGb	C03	1	0.0	12.0110
129	opls_804	1	NGb	O04	1	0.0	15.9990
130	opls_805	1	NGb	C05	1	0.0	12.0110
131	opls_806	1	NGb	C06	1	0.0	12.0110
132	opls_807	1	NGb	C07	1	0.0	12.0110
133	opls_808	1	NGb	C08	1	0.0	12.0110
134	opls_809	1	NGb	C09	1	0.0	12.0110
135	opls_810	1	NGb	C0A	1	0.0	12.0110
136	opls_811	1	NGb	C0B	1	0.0	12.0110
137	opls_812	1	NGb	C0C	1	0.0	12.0110
138	opls_new	1	NGb	DUM	1	0.0	1.0
139	opls_814	1	NGb	C0E	1	0.0	12.0110
140	opls_815	1	NGb	C0F	1	0.0	12.0110
141	opls_816	1	NGb	C0G	1	0.0	12.0110
142	opls_817	1	NGb	C0H	1	0.0	12.0110
143	opls_818	1	NGb	C0I	1	0.0	12.0110
144	opls_819	1	NGb	C0J	1	0.0	12.0110
145	opls_820	1	NGb	C0K	1	0.0	12.0110
146	opls_821	1	NGb	C0M	1	0.0	12.0110
147	opls_822	1	NGb	C0N	1	0.0	12.0110
148	opls_823	1	NGb	C0O	1	0.0	12.0110
149	opls_824	1	NGb	C0P	1	0.0	12.0110
150	opls_825	1	NGb	C0Q	1	0.0	12.0110
151	opls_826	1	NGb	C0R	1	0.0	12.0110
152	opls_827	1	NGb	C0S	1	0.0	12.0110
153	opls_828	1	NGb	C0T	1	0.0	12.0110
154	opls_829	1	NGb	C0U	1	0.0	12.0110
155	opls_830	1	NGb	C0V	1	0.0	12.0110
156	opls_831	1	NGb	C0W	1	0.0	12.0110
157	opls_832	1	NGb	C0X	2	0.0	12.0110
158	opls_833	1	NGb	N0Y	2	0.0	14.0070
159	opls_834	1	NGb	C0Z	2	0.0	12.0110
160	opls_835	1	NGb	C10	2	0.0	12.0110
161	opls_836	1	NGb	C11	2	0.0	12.0110
162	opls_837	1	NGb	N12	2	0.0	14.0070
163	opls_838	1	NGb	C13	2	0.0	12.0110
164	opls_839	1	NGb	N14	2	0.0	14.0070
165	opls_840	1	NGb	O15	2	0.0	15.9990
166	opls_841	1	NGb	C16	2	0.0	12.0110
167	opls_842	1	NGb	C17	2	0.0	12.0110
168	opls_843	1	NGb	C18	2	0.0	12.0110
169	opls_844	1	NGb	C19	2	0.0	12.0110
170	opls_845	1	NGb	C1A	2	0.0	12.0110
171	opls_846	1	NGb	C1B	2	0.0	12.0110
172	opls_847	1	NGb	C1C	2	0.0	12.0110
173	opls_848	1	NGb	C1D	2	0.0	12.0110
174	opls_849	1	NGb	F1E	2	0.0	18.9984
175	opls_850	1	NGb	F1F	2	0.0	18.9984
176	opls_851	1	NGb	F1G	2	0.0	18.9984
177	opls_852	1	NGb	C1H	2	0.0	12.0110
178	opls_853	1	NGb	C1I	2	0.0	12.0110
179	opls_854	1	NGb	C1J	2	0.0	12.0110
180	opls_855	1	NGb	C1K	2	0.0	12.0110
181	opls_856	1	NGb	C1M	2	0.0	12.0110
182	opls_857	1	NGb	C1N	2	0.0	12.0110
183	opls_858	1	NGb	C1O	2	0.0	12.0110
184	opls_859	1	NGb	H1P	2	0.0	1.0080
185	opls_860	1	NGb	H1Q	2	0.0	1.0080
186	opls_861	1	NGb	H1R	2	0.0	1.0080
187	opls_862	1	NGb	H1S	2	0.0	1.0080
188	opls_863	1	NGb	H1T	2	0.0	1.0080
189	opls_864	1	NGb	H1U	2	0.0	1.0080
190	opls_865	1	NGb	H1V	3	0.0	1.0080
191	opls_866	1	NGb	H1W	3	0.0	1.0080
192	opls_867	1	NGb	H1X	3	0.0	1.0080
193	opls_868	1	NGb	H1Y	3	0.0	1.0080
194	opls_869	1	NGb	H1Z	3	0.0	1.0080
195	opls_new	1	NGb	DUM	1	0.0	1.0
196	opls_871	1	NGb	H21	3	0.0	1.0080
197	opls_872	1	NGb	H22	3	0.0	1.0080
198	opls_873	1	NGb	H23	3	0.0	1.0080
199	opls_874	1	NGb	H24	3	0.0	1.0080
200	opls_875	1	NGb	H25	3	0.0	1.0080
201	opls_876	1	NGb	H26	3	0.0	1.0080
202	opls_877	1	NGb	H27	3	0.0	1.0080
203	opls_878	1	NGb	H28	3	0.0	1.0080
204	opls_879	1	NGb	H29	3	0.0	1.0080
205	opls_880	1	NGb	H2A	3	0.0	1.0080
206	opls_881	1	NGb	H2B	3	0.0	1.0080
207	opls_882	1	NGb	H2C	3	0.0	1.0080
208	opls_883	1	NGb	H2D	3	0.0	1.0080
209	opls_884	1	NGb	H2E	3	0.0	1.0080
210	opls_885	1	NGb	H2F	3	0.0	1.0080
211	opls_886	1	NGb	H2G	3	0.0	1.0080
212	opls_887	1	NGb	H2H	3	0.0	1.0080
213	opls_888	1	NGb	H2I	3	0.0	1.0080
214	opls_889	1	NGb	H2J	3	0.0	1.0080
215	opls_890	1	NGb	H2K	3	0.0	1.0080
216	opls_891	1	NGb	H2M	3	0.0	1.0080
217	opls_892	1	NGb	H2N	3	0.0	1.0080
218	opls_893	1	NGb	H2O	3	0.0	1.0080
219	opls_894	1	NGb	H2P	3	0.0	1.0080
220	opls_895	1	NGb	H2Q	3	0.0	1.0080
221	opls_896	1	NGb	H2R	3	0.0	1.0080
222	opls_897	1	NGb	H2S	3	0.0	1.0080
223	opls_898	1	NGb	H2T	4	0.0	1.0080
224	opls_899	1	NGb	H2U	4	0.0	1.0080
225	opls_800	1	NGb	C00	1	0.0	12.0110
226	opls_801	1	NGb	N01	1	0.0	14.0070
227	opls_802	1	NGb	C02	1	0.0	12.0110
228	opls_803	1	NGb	C03	1	0.0	12.0110
229	opls_804	1	NGb	O04	1	0.0	15.9990
230	opls_805	1	NGb	C05	1	0.0	12.0110
231	opls_806	1	NGb	C06	1	0.0	12.0110
232	opls_807	1	NGb	C07	1	0.0	12.0110
233	opls_808	1	NGb	C08	1	0.0	12.0110
234	opls_809	1	NGb	C09	1	0.0	12.0110
235	opls_810	1	NGb	C0A	1	0.0	12.0110
236	opls_811	1	NGb	C0B	1	0.0	12.0110
237	opls_812	1	NGb	C0C	1	0.0	12.0110
238	opls_new	1	NGb	DUM	1	0.0	1.0
239	opls_814	1	NGb	C0E	1	0.0	12.0110
240	opls_815	1	NGb	C0F	1	0.0	12.0110
241	opls_816	1	NGb	C0G	1	0.0	12.0110
242	opls_817	1	NGb	C0H	1	0.0	12.0110
243	opls_818	1	NGb	C0I	1	0.0	12.0110
244	opls_819	1	NGb	C0J	1	0.0	12.0110
245	opls_820	1	NGb	C0K	1	0.0	12.0110
246	opls_821	1	NGb	C0M	1	0.0	12.0110
247	opls_822	1	NGb	C0N	1	0.0	12.0110
248	opls_823	1	NGb	C0O	1	0.0	12.0110
249	opls_824	1	NGb	C0P	1	0.0	12.0110
250	opls_825	1	NGb	C0Q	1	0.0	12.0110
251	opls_826	1	NGb	C0R	1	0.0	12.0110
252	opls_827	1	NGb	C0S	1	0.0	12.0110
253	opls_828	1	NGb	C0T	1	0.0	12.0110
254	opls_829	1	NGb	C0U	1	0.0	12.0110
255	opls_830	1	NGb	C0V	1	0.0	12.0110
256	opls_831	1	NGb	C0W	1	0.0	12.0110
257	opls_832	1	NGb	C0X	2	0.0	12.0110
258	opls_833	1	NGb	N0Y	2	0.0	14.0070
259	opls_834	1	NGb	C0Z	2	0.0	12.0110
260	opls_835	1	NGb	C10	2	0.0	12.0110
261	opls_836	1	NGb	C11	2	0.0	12.0110
262	opls_837	1	NGb	N12	2	0.0	14.0070
263	opls_838	1	NGb	C13	2	0.0	12.0110
264	opls_839	1	NGb	N14	2	0.0	14.0070
265	opls_840	1	NGb	O15	2	0.0	15.9990
266	opls_841	1	NGb	C16	2	0.0	12.0110
267	opls_842	1	NGb	C17	2	0.0	12.0110
268	opls_843	1	NGb	C18	2	0.0	12.0110
269	opls_844	1	NGb	C19	2	0.0	12.0110
270	opls_845	1	NGb	C1A	2	0.0	12.0110
271	opls_846	1	NGb	C1B	2	0.0	12.0110
272	opls_847	1	NGb	C1C	2	0.0	12.0110
273	opls_848	1	NGb	C1D	2	0.0	12.0110
274	opls_849	1	NGb	F1E	2	0.0	18.9984
275	opls_850	1	NGb	F1F	2	0.0	18.9984
276	opls_851	1	NGb	F1G	2	0.0	18.9984
277	opls_852	1	NGb	C1H	2	0.0	12.0110
278	opls_853	1	NGb	C1I	2	0.0	12.0110
279	opls_854	1	NGb	C1J	2	0.0	12.0110
280	opls_855	1	NGb	C1K	2	0.0	12.0110
281	opls_856	1	NGb	C1M	2	0.0	12.0110
282	opls_857	1	NGb	C1N	2	0.0	12.0110
283	opls_858	1	NGb	C1O	2	0.0	12.0110
284	opls_859	1	NGb	H1P	2	0.0	1.0080
285	opls_860	1	NGb	H1Q	2	0.0	1.0080
286	opls_861	1	NGb	H1R	2	0.0	1.0080
287	opls_862	1	NGb	H1S	2	0.0	1.0080
288	opls_863	1	NGb	H1T	2	0.0	1.0080
289	opls_864	1	NGb	H1U	2	0.0	1.0080
290	opls_865	1	NGb	H1V	3	0.0	1.0080
291	opls_866	1	NGb	H1W	3	0.0	1.0080
292	opls_867	1	NGb	H1X	3	0.0	1.0080
293	opls_868	1	NGb	H1Y	3	0.0	1.0080
294	opls_869	1	NGb	H1Z	3	0.0	1.0080
295	opls_new	1	NGb	DUM	1	0.0	1.0
296	opls_871	1	NGb	H21	3	0.0	1.0080
297	opls_872	1	NGb	H22	3	0.0	1.0080
298	opls_873	1	NGb	H23	3	0.0	1.0080
299	opls_874	1	NGb	H24	3	0.0	1.0080
300	opls_875	1	NGb	H25	3	0.0	1.0080
301	opls_876	1	NGb	H26	3	0.0	1.0080
302	opls_877	1	NGb	H27	3	0.0	1.0080
303	opls_878	1	NGb	H28	3	0.0	1.0080
304	opls_879	1	NGb	H29	3	0.0	1.0080
305	opls_880	1	NGb	H2A	3	0.0	1.0080
306	opls_881	1	NGb	H2B	3	0.0	1.0080
307	opls_882	1	NGb	H2C	3	0.0	1.0080
308	opls_883	1	NGb	H2D	3	0.0	1.0080
309	opls_884	1	NGb	H2E	3	0.0	1.0080
310	opls_885	1	NGb	H2F	3	0.0	1.0080
311	opls_886	1	NGb	H2G	3	0.0	1.0080
312	opls_887	1	NGb	H2H	3	0.0	1.0080
313	opls_888	1	NGb	H2I	3	0.0	1.0080
314	opls_889	1	NGb	H2J	3	0.0	1.0080
315	opls_890	1	NGb	H2K	3	0.0	1.0080
316	opls_891	1	NGb	H2M	3	0.0	1.0080
317	opls_892	1	NGb	H2N	3	0.0	1.0080
318	opls_893	1	NGb	H2O	3	0.0	1.0080
319	opls_894	1	NGb	H2P	3	0.0	1.0080
320	opls_895	1	NGb	H2Q	3	0.0	1.0080
321	opls_896	1	NGb	H2R	3	0.0	1.0080
322	opls_897	1	NGb	H2S	3	0.0	1.0080
323	opls_898	1	NGb	H2T	4	0.0	1.0080
324	opls_899	1	NGb	H2U	4	0.0	1.0080
325	opls_800	1	NGb	C00	1	0.0	12.0110
326	opls_801	1	NGb	N01	1	0.0	14.0070
327	opls_802	1	NGb	C02	1	0.0	12.0110
328	opls_803	1	NGb	C03	1	0.0	12.0110
329	opls_804	1	NGb	O04	1	0.0	15.9990
330	opls_805	1	NGb	C05	1	0.0	12.0110
331	opls_806	1	NGb	C06	1	0.0	12.0110
332	opls_807	1	NGb	C07	1	0.0	12.0110
333	opls_808	1	NGb	C08	1	0.0	12.0110
334	opls_809	1	NGb	C09	1	0.0	12.0110
335	opls_810	1	NGb	C0A	1	0.0	12.0110
336	opls_811	1	NGb	C0B	1	0.0	12.0110
337	opls_812	1	NGb	C0C	1	0.0	12.0110
338	opls_new	1	NGb	DUM	1	0.0	1.0
339	opls_814	1	NGb	C0E	1	0.0	12.0110
340	opls_815	1	NGb	C0F	1	0.0	12.0110
341	opls_816	1	NGb	C0G	1	0.0	12.0110
342	opls_817	1	NGb	C0H	1	0.0	12.0110
343	opls_818	1	NGb	C0I	1	0.0	12.0110
344	opls_819	1	NGb	C0J	1	0.0	12.0110
345	opls_820	1	NGb	C0K	1	0.0	12.0110
346	opls_821	1	NGb	C0M	1	0.0	12.0110
347	opls_822	1	NGb	C0N	1	0.0	12.0110
348	opls_823	1	NGb	C0O	1	0.0	12.0110
349	opls_824	1	NGb	C0P	1	0.0	12.0110
350	opls_825	1	NGb	C0Q	1	0.0	12.0110
351	opls_826	1	NGb	C0R	1	0.0	12.0110
352	opls_827	1	NGb	C0S	1	0.0	12.0110
353	opls_828	1	NGb	C0T	1	0.0	12.0110
354	opls_829	1	NGb	C0U	1	0.0	12.0110
355	opls_830	1	NGb	C0V	1	0.0	12.0110
356	opls_831	1	NGb	C0W	1	0.0	12.0110
357	opls_832	1	NGb	C0X	2	0.0	12.0110
358	opls_833	1	NGb	N0Y	2	0.0	14.0070
359	opls_834	1	NGb	C0Z	2	0.0	12.0110
360	opls_835	1	NGb	C10	2	0.0	12.0110
361	opls_836	1	NGb	C11	2	0.0	12.0110
362	opls_837	1	NGb	N12	2	0.0	14.0070
363	opls_838	1	NGb	C13	2	0.0	12.0110
364	opls_839	1	NGb	N14	2	0.0	14.0070
365	opls_840	1	NGb	O15	2	0.0	15.9990
366	opls_841	1	NGb	C16	2	0.0	12.0110
367	opls_842	1	NGb	C17	2	0.0	12.0110
368	opls_843	1	NGb	C18	2	0.0	12.0110
369	opls_844	1	NGb	C19	2	0.0	12.0110
370	opls_845	1	NGb	C1A	2	0.0	12.0110
371	opls_846	1	NGb	C1B	2	0.0	12.0110
372	opls_847	1	NGb	C1C	2	0.0	12.0110
373	opls_848	1	NGb	C1D	2	0.0	12.0110
374	opls_849	1	NGb	F1E	2	0.0	18.9984
375	opls_850	1	NGb	F1F	2	0.0	18.9984
376	opls_851	1	NGb	F1G	2	0.0	18.9984
377	opls_852	1	NGb	C1H	2	0.0	12.0110
378	opls_853	1	NGb	C1I	2	0.0	12.0110
379	opls_854	1	NGb	C1J	2	0.0	12.0110
380	opls_855	1	NGb	C1K	2	0.0	12.0110
381	opls_856	1	NGb	C1M	2	0.0	12.0110
382	opls_857	1	NGb	C1N	2	0.0	12.0110
383	opls_858	1	NGb	C1O	2	0.0	12.0110
384	opls_859	1	NGb	H1P	2	0.0	1.0080
385	opls_860	1	NGb	H1Q	2	0.0	1.0080
386	opls_861	1	NGb	H1R	2	0.0	1.0080
387	opls_862	1	NGb	H1S	2	0.0	1.0080
388	opls_863	1	NGb	H1T	2	0.0	1.0080
389	opls_864	1	NGb	H1U	2	0.0	1.0080
390	opls_865	1	NGb	H1V	3	0.0	1.0080
391	opls_866	1	NGb	H1W	3	0.0	1.0080
392	opls_867	1	NGb	H1X	3	0.0	1.0080
393	opls_868	1	NGb	H1Y	3	0.0	1.0080
394	opls_869	1	NGb	H1Z	3	0.0	1.0080
395	opls_new	1	NGb	DUM	1	0.0	1.0
396	opls_871	1	NGb	H21	3	0.0	1.0080
397	opls_872	1	NGb	H22	3	0.0	1.0080
398	opls_873	1	NGb	H23	3	0.0	1.0080
399	opls_874	1	NGb	H24	3	0.0	1.0080
400	opls_875	1	NGb	H25	3	0.0	1.0080
401	opls_876	1	NGb	H26	3	0.0	1.0080
402	opls_877	1	NGb	H27	3	0.0	1.0080
403	opls_878	1	NGb	H28	3	0.0	1.0080
404	opls_879	1	NGb	H29	3	0.0	1.0080
405	opls_880	1	NGb	H2A	3	0.0	1.0080
406	opls_881	1	NGb	H2B	3	0.0	1.0080
407	opls_882	1	NGb	H2C	3	0.0	1.0080
408	opls_883	1	NGb	H2D	3	0.0	1.0080
409	opls_884	1	NGb	H2E	3	0.0	1.0080
410	opls_885	1	NGb	H2F	3	0.0	1.0080
411	opls_886	1	NGb	H2G	3	0.0	1.0080
412	opls_887	1	NGb	H2H	3	0.0	1.0080
413	opls_888	1	NGb	H2I	3	0.0	1.0080
414	opls_889	1	NGb	H2J	3	0.0	1.0080
415	opls_890	1	NGb	H2K	3	0.0	1.0080
416	opls_891	1	NGb	H2M	3	0.0	1.0080
417	opls_892	1	NGb	H2N	3	0.0	1.0080
418	opls_893	1	NGb	H2O	3	0.0	1.0080
419	opls_894	1	NGb	H2P	3	0.0	1.0080
420	opls_895	1	NGb	H2Q	3	0.0	1.0080
421	opls_896	1	NGb	H2R	3	0.0	1.0080
422	opls_897	1	NGb	H2S	3	0.0	1.0080
423	opls_898	1	NGb	H2T	4	0.0	1.0080
424	opls_899	1	NGb	H2U	4	0.0	1.0080
425	opls_800	1	NGb	C00	1	0.0	12.0110
426	opls_801	1	NGb	N01	1	0.0	14.0070
427	opls_802	1	NGb	C02	1	0.0	12.0110
428	opls_803	1	NGb	C03	1	0.0	12.0110
429	opls_804	1	NGb	O04	1	0.0	15.9990
430	opls_805	1	NGb	C05	1	0.0	12.0110
431	opls_806	1	NGb	C06	1	0.0	12.0110
432	opls_807	1	NGb	C07	1	0.0	12.0110
433	opls_808	1	NGb	C08	1	0.0	12.0110
434	opls_809	1	NGb	C09	1	0.0	12.0110
435	opls_810	1	NGb	C0A	1	0.0	12.0110
436	opls_811	1	NGb	C0B	1	0.0	12.0110
437	opls_812	1	NGb	C0C	1	0.0	12.0110
438	opls_new	1	NGb	DUM	1	0.0	1.0
439	opls_814	1	NGb	C0E	1	0.0	12.0110
440	opls_815	1	NGb	C0F	1	0.0	12.0110
441	opls_816	1	NGb	C0G	1	0.0	12.0110
442	opls_817	1	NGb	C0H	1	0.0	12.0110
443	opls_818	1	NGb	C0I	1	0.0	12.0110
444	opls_819	1	NGb	C0J	1	0.0	12.0110
445	opls_820	1	NGb	C0K	1	0.0	12.0110
446	opls_821	1	NGb	C0M	1	0.0	12.0110
447	opls_822	1	NGb	C0N	1	0.0	12.0110
448	opls_823	1	NGb	C0O	1	0.0	12.0110
449	opls_824	1	NGb	C0P	1	0.0	12.0110
450	opls_825	1	NGb	C0Q	1	0.0	12.0110
451	opls_826	1	NGb	C0R	1	0.0	12.0110
452	opls_827	1	NGb	C0S	1	0.0	12.0110
453	opls_828	1	NGb	C0T	1	0.0	12.0110
454	opls_829	1	NGb	C0U	1	0.0	12.0110
455	opls_830	1	NGb	C0V	1	0.0	12.0110
456	opls_831	1	NGb	C0W	1	0.0	12.0110
457	opls_832	1	NGb	C0X	2	0.0	12.0110
458	opls_833	1	NGb	N0Y	2	0.0	14.0070
459	opls_834	1	NGb	C0Z	2	0.0	12.0110
460	opls_835	1	NGb	C10	2	0.0	12.0110
461	opls_836	1	NGb	C11	2	0.0	12.0110
462	opls_837	1	NGb	N12	2	0.0	14.0070
463	opls_838	1	NGb	C13	2	0.0	12.0110
464	opls_839	1	NGb	N14	2	0.0	14.0070
465	opls_840	1	NGb	O15	2	0.0	15.9990
466	opls_841	1	NGb	C16	2	0.0	12.0110
467	opls_842	1	NGb	C17	2	0.0	12.0110
468	opls_843	1	NGb	C18	2	0.0	12.0110
469	opls_844	1	NGb	C19	2	0.0	12.0110
470	opls_845	1	NGb	C1A	2	0.0	12.0110
471	opls_846	1	NGb	C1B	2	0.0	12.0110
472	opls_847	1	NGb	C1C	2	0.0	12.0110
473	opls_848	1	NGb	C1D	2	0.0	12.0110
474	opls_849	1	NGb	F1E	2	0.0	18.9984
475	opls_850	1	NGb	F1F	2	0.0	18.9984
476	opls_851	1	NGb	F1G	2	0.0	18.9984
477	opls_852	1	NGb	C1H	2	0.0	12.0110
478	opls_853	1	NGb	C1I	2	0.0	12.0110
479	opls_854	1	NGb	C1J	2	0.0	12.0110
480	opls_855	1	NGb	C1K	2	0.0	12.0110
481	opls_856	1	NGb	C1M	2	0.0	12.0110
482	opls_857	1	NGb	C1N	2	0.0	12.0110
483	opls_858	1	NGb	C1O	2	0.0	12.0110
484	opls_859	1	NGb	H1P	2	0.0	1.0080
485	opls_860	1	NGb	H1Q	2	0.0	1.0080
486	opls_861	1	NGb	H1R	2	0.0	1.0080
487	opls_862	1	NGb	H1S	2	0.0	1.0080
488	opls_863	1	NGb	H1T	2	0.0	1.0080
489	opls_864	1	NGb	H1U	2	0.0	1.0080
490	opls_865	1	NGb	H1V	3	0.0	1.0080
491	opls_866	1	NGb	H1W	3	0.0	1.0080
492	opls_867	1	NGb	H1X	3	0.0	1.0080
493	opls_868	1	NGb	H1Y	3	0.0	1.0080
494	opls_869	1	NGb	H1Z	3	0.0	1.0080
495	opls_new	1	NGb	DUM	1	0.0	1.0
496	opls_871	1	NGb	H21	3	0.0	1.0080
497	opls_872	1	NGb	H22	3	0.0	1.0080
498	opls_873	1	NGb	H23	3	0.0	1.0080
499	opls_874	1	NGb	H24	3	0.0	1.0080
500	opls_875	1	NGb	H25	3	0.0	1.0080
501	opls_876	1	NGb	H26	3	0.0	1.0080
502	opls_877	1	NGb	H27	3	0.0	1.0080
503	opls_878	1	NGb	H28	3	0.0	1.0080
504	opls_879	1	NGb	H29	3	0.0	1.0080
505	opls_880	1	NGb	H2A	3	0.0	1.0080
506	opls_881	1	NGb	H2B	3	0.0	1.0080
507	opls_882	1	NGb	H2C	3	0.0	1.0080
508	opls_883	1	NGb	H2D	3	0.0	1.0080
509	opls_884	1	NGb	H2E	3	0.0	1.0080
510	opls_885	1	NGb	H2F	3	0.0	1.0080
511	opls_886	1	NGb	H2G	3	0.0	1.0080
512	opls_887	1	NGb	H2H	3	0.0	1.0080
513	opls_888	1	NGb	H2I	3	0.0	1.0080
514	opls_889	1	NGb	H2J	3	0.0	1.0080
515	opls_890	1	NGb	H2K	3	0.0	1.0080
516	opls_891	1	NGb	H2M	3	0.0	1.0080
517	opls_892	1	NGb	H2N	3	0.0	1.0080
518	opls_893	1	NGb	H2O	3	0.0	1.0080
519	opls_894	1	NGb	H2P	3	0.0	1.0080
520	opls_895	1	NGb	H2Q	3	0.0	1.0080
521	opls_896	1	NGb	H2R	3	0.0	1.0080
522	opls_897	1	NGb	H2S	3	0.0	1.0080
523	opls_898	1	NGb	H2T	4	0.0	1.0080
524	opls_899	1	NGb	H2U	4	0.0	1.0080

[ bonds ]
2	1	1	0.1640	312963.200
3	1	1	0.1640	312963.200
4	1	1	0.1640	312963.200
5	4	1	0.1640	312963.200
6	5	1	0.1640	312963.200
7	5	1	0.1640	312963.200
8	5	1	0.1640	312963.200
9	8	1	0.1640	312963.200
10	9	1	0.1640	312963.200
11	9	1	0.1640	312963.200
12	9	1	0.1640	312963.200
13	12	1	0.1640	312963.200
14	13	1	0.1640	312963.200
15	13	1	0.1640	312963.200
16	15	1	0.1640	312963.200
17	16	1	0.1640	312963.200
18	17	1	0.1640	312963.200
19	18	1	0.1480	138908.800
20	18	1	0.1480	138908.800
21	18	1	0.1640	312963.200
22	13	1	0.1640	312963.200
23	22	1	0.1640	312963.200
24	23	1	0.1640	312963.200
25	24	1	0.1640	312963.200
26	25	1	0.1480	138908.800
27	25	1	0.1480	138908.800
28	25	1	0.1640	312963.200
30	29	1	0.1640	312963.200
31	29	1	0.1640	312963.200
32	29	1	0.1640	312963.200
33	32	1	0.1640	312963.200
34	33	1	0.1640	312963.200
35	33	1	0.1640	312963.200
36	33	1	0.1640	312963.200
37	36	1	0.1640	312963.200
38	37	1	0.1640	312963.200
39	37	1	0.1640	312963.200
40	37	1	0.1640	312963.200
41	40	1	0.1640	312963.200
42	41	1	0.1640	312963.200
43	41	1	0.1640	312963.200
44	43	1	0.1640	312963.200
45	44	1	0.1640	312963.200
46	45	1	0.1640	312963.200
47	46	1	0.1480	138908.800
48	46	1	0.1480	138908.800
49	46	1	0.1640	312963.200
50	41	1	0.1640	312963.200
51	50	1	0.1640	312963.200
52	51	1	0.1640	312963.200
53	52	1	0.1640	312963.200
54	53	1	0.1480	138908.800
55	53	1	0.1480	138908.800
56	53	1	0.1640	312963.200
58	57	1	0.1640	312963.200
59	57	1	0.1640	312963.200
60	57	1	0.1640	312963.200
61	60	1	0.1640	312963.200
62	61	1	0.1640	312963.200
63	61	1	0.1640	312963.200
64	61	1	0.1640	312963.200
65	64	1	0.1640	312963.200
66	65	1	0.1640	312963.200
67	65	1	0.1640	312963.200
68	65	1	0.1640	312963.200
69	68	1	0.1640	312963.200
70	69	1	0.1640	312963.200
71	69	1	0.1640	312963.200
72	71	1	0.1640	312963.200
73	72	1	0.1640	312963.200
74	73	1	0.1640	312963.200
75	74	1	0.1480	138908.800
76	74	1	0.1480	138908.800
77	74	1	0.1640	312963.200
78	69	1	0.1640	312963.200
79	78	1	0.1640	312963.200
80	79	1	0.1640	312963.200
81	80	1	0.1640	312963.200
82	81	1	0.1480	138908.800
83	81	1	0.1480	138908.800
84	81	1	0.1640	312963.200
86	85	1	0.1640	312963.200
87	85	1	0.1640	312963.200
88	85	1	0.1640	312963.200
89	88	1	0.1640	312963.200
90	89	1	0.1640	312963.200
91	89	1	0.1640	312963.200
92	89	1	0.1640	312963.200
93	92	1	0.1640	312963.200
94	93	1	0.1640	312963.200
95	93	1	0.1640	312963.200
96	93	1	0.1640	312963.200
97	96	1	0.1640	312963.200
98	97	1	0.1640	312963.200
99	97	1	0.1640	312963.200
100	99	1	0.1640	312963.200
101	100	1	0.1640	312963.200
102	101	1	0.1640	312963.200
103	102	1	0.1480	138908.800
104	102	1	0.1480	138908.800
105	102	1	0.1640	312963.200
106	97	1	0.1640	312963.200
107	106	1	0.1640	312963.200
108	107	1	0.1640	312963.200
109	108	1	0.1640	312963.200
110	109	1	0.1480	138908.800
111	109	1	0.1480	138908.800
112	109	1	0.1640	312963.200
23	35	1	0.164	312963.2
23	49	1	0.164	312963.2
79	91	1	0.164	312963.2
79	105	1	0.164	312963.2
51	7	1	0.164	312963.2
51	21	1	0.164	312963.2
107	63	1	0.164	312963.2
107	77	1	0.164	312963.2
16	62	1	0.164	312963.2
16	84	1	0.164	312963.2
44	90	1	0.164	312963.2
44	112	1	0.164	312963.2
72	6	1	0.164	312963.2
72	28	1	0.164	312963.2
100	34	1	0.164	312963.2
100	56	1	0.164	312963.2
1	98	1	0.164	312963.2
57	42	1	0.164	312963.2
29	70	1	0.164	312963.2
85	14	1	0.164	312963.2
3	113	1	0.164	312963.2
11	114	1	0.164	312963.2
10	115	1	0.164	312963.2
31	116	1	0.164	312963.2
39	117	1	0.164	312963.2
38	118	1	0.164	312963.2
59	119	1	0.164	312963.2
67	120	1	0.164	312963.2
66	121	1	0.164	312963.2
87	122	1	0.164	312963.2
95	123	1	0.164	312963.2
94	124	1	0.164	312963.2
126	125	1	0.1448	319657.600
127	126	1	0.1448	319657.600
128	127	1	0.1529	224262.400
129	128	1	0.1410	267776.000
130	129	1	0.1364	376560.000
131	130	1	0.1400	392459.200
132	131	1	0.1400	392459.200
133	132	1	0.1400	392459.200
134	133	1	0.1460	322168.000
135	134	1	0.1400	392459.200
136	135	1	0.1400	392459.200
137	136	1	0.1400	392459.200
138	137	1	0.14	0.0
139	137	1	0.1400	392459.200
140	134	1	0.1400	392459.200
141	133	1	0.1400	392459.200
142	130	1	0.1400	392459.200
143	126	1	0.1340	402500.800
144	143	1	0.1400	392459.200
145	144	1	0.1400	392459.200
146	145	1	0.1400	392459.200
147	146	1	0.1433	357313.600
148	147	1	0.1345	459403.200
149	148	1	0.1345	459403.200
150	149	1	0.1345	459403.200
151	150	1	0.1345	459403.200
152	151	1	0.1345	459403.200
153	152	1	0.1345	459403.200
154	153	1	0.1345	459403.200
155	154	1	0.1433	357313.600
156	155	1	0.1340	459403.200
157	156	1	0.1426	334720.000
158	157	1	0.1157	543920.000
159	156	1	0.1365	459403.200
160	159	1	0.1367	456892.800
161	160	1	0.1426	334720.000
162	161	1	0.1157	543920.000
163	160	1	0.1426	334720.000
164	163	1	0.1157	543920.000
165	159	1	0.1360	284512.000
166	155	1	0.1510	265265.600
167	166	1	0.1510	265265.600
168	167	1	0.1400	392459.200
169	168	1	0.1400	392459.200
170	169	1	0.1400	392459.200
171	170	1	0.1400	392459.200
172	167	1	0.1400	392459.200
173	166	1	0.1529	224262.400
174	173	1	0.1360	307105.600
175	173	1	0.1360	307105.600
176	173	1	0.1360	307105.600
177	151	1	0.1510	265265.600
178	177	1	0.1529	224262.400
179	178	1	0.1529	224262.400
180	178	1	0.1529	224262.400
181	149	1	0.1510	265265.600
182	146	1	0.1400	392459.200
183	143	1	0.1400	392459.200
184	125	1	0.1090	284512.000
185	125	1	0.1090	284512.000
186	125	1	0.1090	284512.000
187	127	1	0.1090	284512.000
188	127	1	0.1090	284512.000
189	128	1	0.1090	284512.000
190	128	1	0.1090	284512.000
191	131	1	0.1080	307105.600
192	132	1	0.1080	307105.600
193	135	1	0.1080	307105.600
194	136	1	0.1080	307105.600
195	138	1	0.14	0.0
196	139	1	0.1080	307105.600
197	140	1	0.1080	307105.600
198	141	1	0.1080	307105.600
199	142	1	0.1080	307105.600
200	144	1	0.1080	307105.600
201	145	1	0.1080	307105.600
202	147	1	0.1080	284512.000
203	148	1	0.1080	284512.000
204	150	1	0.1050	345196.736
205	152	1	0.1080	284512.000
206	153	1	0.1080	284512.000
207	154	1	0.1080	284512.000
208	168	1	0.1080	307105.600
209	169	1	0.1080	307105.600
210	170	1	0.1080	307105.600
211	171	1	0.1080	307105.600
212	172	1	0.1080	307105.600
213	177	1	0.1090	284512.000
214	177	1	0.1090	284512.000
215	179	1	0.1090	284512.000
216	179	1	0.1090	284512.000
217	179	1	0.1090	284512.000
218	180	1	0.1090	284512.000
219	180	1	0.1090	284512.000
220	180	1	0.1090	284512.000
221	181	1	0.1090	284512.000
222	181	1	0.1090	284512.000
223	182	1	0.1080	307105.600
224	183	1	0.1080	307105.600
140	139	1	0.1400	392459.200
142	141	1	0.1400	392459.200
166	165	1	0.1410	267776.000
172	171	1	0.1400	392459.200
181	178	1	0.1529	224262.400
183	182	1	0.1400	392459.200
226	225	1	0.1448	319657.600
227	226	1	0.1448	319657.600
228	227	1	0.1529	224262.400
229	228	1	0.1410	267776.000
230	229	1	0.1364	376560.000
231	230	1	0.1400	392459.200
232	231	1	0.1400	392459.200
233	232	1	0.1400	392459.200
234	233	1	0.1460	322168.000
235	234	1	0.1400	392459.200
236	235	1	0.1400	392459.200
237	236	1	0.1400	392459.200
238	237	1	0.14	0.0
239	237	1	0.1400	392459.200
240	234	1	0.1400	392459.200
241	233	1	0.1400	392459.200
242	230	1	0.1400	392459.200
243	226	1	0.1340	402500.800
244	243	1	0.1400	392459.200
245	244	1	0.1400	392459.200
246	245	1	0.1400	392459.200
247	246	1	0.1433	357313.600
248	247	1	0.1345	459403.200
249	248	1	0.1345	459403.200
250	249	1	0.1345	459403.200
251	250	1	0.1345	459403.200
252	251	1	0.1345	459403.200
253	252	1	0.1345	459403.200
254	253	1	0.1345	459403.200
255	254	1	0.1433	357313.600
256	255	1	0.1340	459403.200
257	256	1	0.1426	334720.000
258	257	1	0.1157	543920.000
259	256	1	0.1365	459403.200
260	259	1	0.1367	456892.800
261	260	1	0.1426	334720.000
262	261	1	0.1157	543920.000
263	260	1	0.1426	334720.000
264	263	1	0.1157	543920.000
265	259	1	0.1360	284512.000
266	255	1	0.1510	265265.600
267	266	1	0.1510	265265.600
268	267	1	0.1400	392459.200
269	268	1	0.1400	392459.200
270	269	1	0.1400	392459.200
271	270	1	0.1400	392459.200
272	267	1	0.1400	392459.200
273	266	1	0.1529	224262.400
274	273	1	0.1360	307105.600
275	273	1	0.1360	307105.600
276	273	1	0.1360	307105.600
277	251	1	0.1510	265265.600
278	277	1	0.1529	224262.400
279	278	1	0.1529	224262.400
280	278	1	0.1529	224262.400
281	249	1	0.1510	265265.600
282	246	1	0.1400	392459.200
283	243	1	0.1400	392459.200
284	225	1	0.1090	284512.000
285	225	1	0.1090	284512.000
286	225	1	0.1090	284512.000
287	227	1	0.1090	284512.000
288	227	1	0.1090	284512.000
289	228	1	0.1090	284512.000
290	228	1	0.1090	284512.000
291	231	1	0.1080	307105.600
292	232	1	0.1080	307105.600
293	235	1	0.1080	307105.600
294	236	1	0.1080	307105.600
295	238	1	0.14	0.0
296	239	1	0.1080	307105.600
297	240	1	0.1080	307105.600
298	241	1	0.1080	307105.600
299	242	1	0.1080	307105.600
300	244	1	0.1080	307105.600
301	245	1	0.1080	307105.600
302	247	1	0.1080	284512.000
303	248	1	0.1080	284512.000
304	250	1	0.1050	345196.736
305	252	1	0.1080	284512.000
306	253	1	0.1080	284512.000
307	254	1	0.1080	284512.000
308	268	1	0.1080	307105.600
309	269	1	0.1080	307105.600
310	270	1	0.1080	307105.600
311	271	1	0.1080	307105.600
312	272	1	0.1080	307105.600
313	277	1	0.1090	284512.000
314	277	1	0.1090	284512.000
315	279	1	0.1090	284512.000
316	279	1	0.1090	284512.000
317	279	1	0.1090	284512.000
318	280	1	0.1090	284512.000
319	280	1	0.1090	284512.000
320	280	1	0.1090	284512.000
321	281	1	0.1090	284512.000
322	281	1	0.1090	284512.000
323	282	1	0.1080	307105.600
324	283	1	0.1080	307105.600
240	239	1	0.1400	392459.200
242	241	1	0.1400	392459.200
266	265	1	0.1410	267776.000
272	271	1	0.1400	392459.200
281	278	1	0.1529	224262.400
283	282	1	0.1400	392459.200
326	325	1	0.1448	319657.600
327	326	1	0.1448	319657.600
328	327	1	0.1529	224262.400
329	328	1	0.1410	267776.000
330	329	1	0.1364	376560.000
331	330	1	0.1400	392459.200
332	331	1	0.1400	392459.200
333	332	1	0.1400	392459.200
334	333	1	0.1460	322168.000
335	334	1	0.1400	392459.200
336	335	1	0.1400	392459.200
337	336	1	0.1400	392459.200
338	337	1	0.14	0.0
339	337	1	0.1400	392459.200
340	334	1	0.1400	392459.200
341	333	1	0.1400	392459.200
342	330	1	0.1400	392459.200
343	326	1	0.1340	402500.800
344	343	1	0.1400	392459.200
345	344	1	0.1400	392459.200
346	345	1	0.1400	392459.200
347	346	1	0.1433	357313.600
348	347	1	0.1345	459403.200
349	348	1	0.1345	459403.200
350	349	1	0.1345	459403.200
351	350	1	0.1345	459403.200
352	351	1	0.1345	459403.200
353	352	1	0.1345	459403.200
354	353	1	0.1345	459403.200
355	354	1	0.1433	357313.600
356	355	1	0.1340	459403.200
357	356	1	0.1426	334720.000
358	357	1	0.1157	543920.000
359	356	1	0.1365	459403.200
360	359	1	0.1367	456892.800
361	360	1	0.1426	334720.000
362	361	1	0.1157	543920.000
363	360	1	0.1426	334720.000
364	363	1	0.1157	543920.000
365	359	1	0.1360	284512.000
366	355	1	0.1510	265265.600
367	366	1	0.1510	265265.600
368	367	1	0.1400	392459.200
369	368	1	0.1400	392459.200
370	369	1	0.1400	392459.200
371	370	1	0.1400	392459.200
372	367	1	0.1400	392459.200
373	366	1	0.1529	224262.400
374	373	1	0.1360	307105.600
375	373	1	0.1360	307105.600
376	373	1	0.1360	307105.600
377	351	1	0.1510	265265.600
378	377	1	0.1529	224262.400
379	378	1	0.1529	224262.400
380	378	1	0.1529	224262.400
381	349	1	0.1510	265265.600
382	346	1	0.1400	392459.200
383	343	1	0.1400	392459.200
384	325	1	0.1090	284512.000
385	325	1	0.1090	284512.000
386	325	1	0.1090	284512.000
387	327	1	0.1090	284512.000
388	327	1	0.1090	284512.000
389	328	1	0.1090	284512.000
390	328	1	0.1090	284512.000
391	331	1	0.1080	307105.600
392	332	1	0.1080	307105.600
393	335	1	0.1080	307105.600
394	336	1	0.1080	307105.600
395	338	1	0.14	0.0
396	339	1	0.1080	307105.600
397	340	1	0.1080	307105.600
398	341	1	0.1080	307105.600
399	342	1	0.1080	307105.600
400	344	1	0.1080	307105.600
401	345	1	0.1080	307105.600
402	347	1	0.1080	284512.000
403	348	1	0.1080	284512.000
404	350	1	0.1050	345196.736
405	352	1	0.1080	284512.000
406	353	1	0.1080	284512.000
407	354	1	0.1080	284512.000
408	368	1	0.1080	307105.600
409	369	1	0.1080	307105.600
410	370	1	0.1080	307105.600
411	371	1	0.1080	307105.600
412	372	1	0.1080	307105.600
413	377	1	0.1090	284512.000
414	377	1	0.1090	284512.000
415	379	1	0.1090	284512.000
416	379	1	0.1090	284512.000
417	379	1	0.1090	284512.000
418	380	1	0.1090	284512.000
419	380	1	0.1090	284512.000
420	380	1	0.1090	284512.000
421	381	1	0.1090	284512.000
422	381	1	0.1090	284512.000
423	382	1	0.1080	307105.600
424	383	1	0.1080	307105.600
340	339	1	0.1400	392459.200
342	341	1	0.1400	392459.200
366	365	1	0.1410	267776.000
372	371	1	0.1400	392459.200
381	378	1	0.1529	224262.400
383	382	1	0.1400	392459.200
426	425	1	0.1448	319657.600
427	426	1	0.1448	319657.600
428	427	1	0.1529	224262.400
429	428	1	0.1410	267776.000
430	429	1	0.1364	376560.000
431	430	1	0.1400	392459.200
432	431	1	0.1400	392459.200
433	432	1	0.1400	392459.200
434	433	1	0.1460	322168.000
435	434	1	0.1400	392459.200
436	435	1	0.1400	392459.200
437	436	1	0.1400	392459.200
438	437	1	0.14	0.0
439	437	1	0.1400	392459.200
440	434	1	0.1400	392459.200
441	433	1	0.1400	392459.200
442	430	1	0.1400	392459.200
443	426	1	0.1340	402500.800
444	443	1	0.1400	392459.200
445	444	1	0.1400	392459.200
446	445	1	0.1400	392459.200
447	446	1	0.1433	357313.600
448	447	1	0.1345	459403.200
449	448	1	0.1345	459403.200
450	449	1	0.1345	459403.200
451	450	1	0.1345	459403.200
452	451	1	0.1345	459403.200
453	452	1	0.1345	459403.200
454	453	1	0.1345	459403.200
455	454	1	0.1433	357313.600
456	455	1	0.1340	459403.200
457	456	1	0.1426	334720.000
458	457	1	0.1157	543920.000
459	456	1	0.1365	459403.200
460	459	1	0.1367	456892.800
461	460	1	0.1426	334720.000
462	461	1	0.1157	543920.000
463	460	1	0.1426	334720.000
464	463	1	0.1157	543920.000
465	459	1	0.1360	284512.000
466	455	1	0.1510	265265.600
467	466	1	0.1510	265265.600
468	467	1	0.1400	392459.200
469	468	1	0.1400	392459.200
470	469	1	0.1400	392459.200
471	470	1	0.1400	392459.200
472	467	1	0.1400	392459.200
473	466	1	0.1529	224262.400
474	473	1	0.1360	307105.600
475	473	1	0.1360	307105.600
476	473	1	0.1360	307105.600
477	451	1	0.1510	265265.600
478	477	1	0.1529	224262.400
479	478	1	0.1529	224262.400
480	478	1	0.1529	224262.400
481	449	1	0.1510	265265.600
482	446	1	0.1400	392459.200
483	443	1	0.1400	392459.200
484	425	1	0.1090	284512.000
485	425	1	0.1090	284512.000
486	425	1	0.1090	284512.000
487	427	1	0.1090	284512.000
488	427	1	0.1090	284512.000
489	428	1	0.1090	284512.000
490	428	1	0.1090	284512.000
491	431	1	0.1080	307105.600
492	432	1	0.1080	307105.600
493	435	1	0.1080	307105.600
494	436	1	0.1080	307105.600
495	438	1	0.14	0.0
496	439	1	0.1080	307105.600
497	440	1	0.1080	307105.600
498	441	1	0.1080	307105.600
499	442	1	0.1080	307105.600
500	444	1	0.1080	307105.600
501	445	1	0.1080	307105.600
502	447	1	0.1080	284512.000
503	448	1	0.1080	284512.000
504	450	1	0.1050	345196.736
505	452	1	0.1080	284512.000
506	453	1	0.1080	284512.000
507	454	1	0.1080	284512.000
508	468	1	0.1080	307105.600
509	469	1	0.1080	307105.600
510	470	1	0.1080	307105.600
511	471	1	0.1080	307105.600
512	472	1	0.1080	307105.600
513	477	1	0.1090	284512.000
514	477	1	0.1090	284512.000
515	479	1	0.1090	284512.000
516	479	1	0.1090	284512.000
517	479	1	0.1090	284512.000
518	480	1	0.1090	284512.000
519	480	1	0.1090	284512.000
520	480	1	0.1090	284512.000
521	481	1	0.1090	284512.000
522	481	1	0.1090	284512.000
523	482	1	0.1080	307105.600
524	483	1	0.1080	307105.600
440	439	1	0.1400	392459.200
442	441	1	0.1400	392459.200
466	465	1	0.1410	267776.000
472	471	1	0.1400	392459.200
481	478	1	0.1529	224262.400
483	482	1	0.1400	392459.200

;periodic bonds
2	137	1	0.164	312963.2
30	237	1	0.164	312963.2
58	337	1	0.164	312963.2
86	437	1	0.164	312963.2

[ angles ]
1	4	5	1	180.000	167.360
4	5	6	1	110.000	502.080
4	5	7	1	110.000	502.080
4	5	8	1	110.000	502.080
5	8	9	1	180.000	167.360
8	9	10	1	109.500	355.640
8	9	11	1	109.500	355.640
8	9	12	1	110.000	502.080
9	12	13	1	180.000	167.360
12	13	14	1	110.000	502.080
12	13	15	1	110.000	502.080
13	15	16	1	180.000	167.360
15	16	17	1	110.000	502.080
16	17	18	1	180.000	167.360
17	18	19	1	109.500	355.640
17	18	20	1	109.500	355.640
19	18	20	1	109.500	292.880
14	13	15	1	110.000	502.080
10	9	11	1	109.500	292.880
6	5	8	1	110.000	502.080
2	1	3	1	110.000	502.080
3	1	4	1	109.500	355.640
2	1	4	1	110.000	502.080
11	9	12	1	109.500	355.640
6	5	7	1	110.000	502.080
7	5	8	1	110.000	502.080
10	9	12	1	109.500	355.640
17	18	21	1	110.000	502.080
12	13	22	1	110.000	502.080
13	22	23	1	180.000	167.360
22	23	24	1	110.000	502.080
23	24	25	1	180.000	167.360
24	25	26	1	109.500	355.640
24	25	27	1	109.500	355.640
24	25	28	1	110.000	502.080
15	13	22	1	110.000	502.080
26	25	27	1	109.500	292.880
26	25	27	1	109.500	292.880
14	13	22	1	109.500	355.640
28	25	27	1	109.500	355.640
20	18	21	1	109.500	355.640
19	18	21	1	109.500	355.640
29	32	33	1	180.000	167.360
32	33	34	1	110.000	502.080
32	33	35	1	110.000	502.080
32	33	36	1	110.000	502.080
33	36	37	1	180.000	167.360
36	37	38	1	109.500	355.640
36	37	39	1	109.500	355.640
36	37	40	1	110.000	502.080
37	40	41	1	180.000	167.360
40	41	42	1	110.000	502.080
40	41	43	1	110.000	502.080
41	43	44	1	180.000	167.360
43	44	45	1	110.000	502.080
44	45	46	1	180.000	167.360
45	46	47	1	109.500	355.640
45	46	48	1	109.500	355.640
47	46	48	1	109.500	292.880
42	41	43	1	110.000	502.080
38	37	39	1	109.500	292.880
34	33	36	1	110.000	502.080
30	29	31	1	110.000	502.080
31	29	32	1	109.500	355.640
30	29	32	1	110.000	502.080
39	37	40	1	109.500	355.640
34	33	35	1	110.000	502.080
35	33	36	1	110.000	502.080
38	37	40	1	109.500	355.640
45	46	49	1	110.000	502.080
40	41	50	1	110.000	502.080
41	50	51	1	180.000	167.360
50	51	52	1	110.000	502.080
51	52	53	1	180.000	167.360
52	53	54	1	109.500	355.640
52	53	55	1	109.500	355.640
52	53	56	1	110.000	502.080
43	41	50	1	110.000	502.080
54	53	55	1	109.500	292.880
54	53	55	1	109.500	292.880
42	41	50	1	109.500	355.640
56	53	55	1	109.500	355.640
48	46	49	1	109.500	355.640
47	46	49	1	109.500	355.640
57	60	61	1	180.000	167.360
60	61	62	1	110.000	502.080
60	61	63	1	110.000	502.080
60	61	64	1	110.000	502.080
61	64	65	1	180.000	167.360
64	65	66	1	109.500	355.640
64	65	67	1	109.500	355.640
64	65	68	1	110.000	502.080
65	68	69	1	180.000	167.360
68	69	70	1	110.000	502.080
68	69	71	1	110.000	502.080
69	71	72	1	180.000	167.360
71	72	73	1	110.000	502.080
72	73	74	1	180.000	167.360
73	74	75	1	109.500	355.640
73	74	76	1	109.500	355.640
75	74	76	1	109.500	292.880
70	69	71	1	110.000	502.080
66	65	67	1	109.500	292.880
62	61	64	1	110.000	502.080
58	57	59	1	110.000	502.080
59	57	60	1	109.500	355.640
58	57	60	1	110.000	502.080
67	65	68	1	109.500	355.640
62	61	63	1	110.000	502.080
63	61	64	1	110.000	502.080
66	65	68	1	109.500	355.640
73	74	77	1	110.000	502.080
68	69	78	1	110.000	502.080
69	78	79	1	180.000	167.360
78	79	80	1	110.000	502.080
79	80	81	1	180.000	167.360
80	81	82	1	109.500	355.640
80	81	83	1	109.500	355.640
80	81	84	1	110.000	502.080
71	69	78	1	110.000	502.080
82	81	83	1	109.500	292.880
82	81	83	1	109.500	292.880
70	69	78	1	109.500	355.640
84	81	83	1	109.500	355.640
76	74	77	1	109.500	355.640
75	74	77	1	109.500	355.640
85	88	89	1	180.000	167.360
88	89	90	1	110.000	502.080
88	89	91	1	110.000	502.080
88	89	92	1	110.000	502.080
89	92	93	1	180.000	167.360
92	93	94	1	109.500	355.640
92	93	95	1	109.500	355.640
92	93	96	1	110.000	502.080
93	96	97	1	180.000	167.360
96	97	98	1	110.000	502.080
96	97	99	1	110.000	502.080
97	99	100	1	180.000	167.360
99	100	101	1	110.000	502.080
100	101	102	1	180.000	167.360
101	102	103	1	109.500	355.640
101	102	104	1	109.500	355.640
103	102	104	1	109.500	292.880
98	97	99	1	110.000	502.080
94	93	95	1	109.500	292.880
90	89	92	1	110.000	502.080
86	85	87	1	110.000	502.080
87	85	88	1	109.500	355.640
86	85	88	1	110.000	502.080
95	93	96	1	109.500	355.640
90	89	91	1	110.000	502.080
91	89	92	1	110.000	502.080
94	93	96	1	109.500	355.640
101	102	105	1	110.000	502.080
96	97	106	1	110.000	502.080
97	106	107	1	180.000	167.360
106	107	108	1	110.000	502.080
107	108	109	1	180.000	167.360
108	109	110	1	109.500	355.640
108	109	111	1	109.500	355.640
108	109	112	1	110.000	502.080
99	97	106	1	110.000	502.080
110	109	111	1	109.500	292.880
110	109	111	1	109.500	292.880
98	97	106	1	109.500	355.640
112	109	111	1	109.500	355.640
104	102	105	1	109.500	355.640
103	102	105	1	109.500	355.640
22	23	35	1	110.0	502.08
22	23	49	1	110.0	502.08
24	23	35	1	110.0	502.08
24	23	49	1	110.0	502.08
35	23	49	1	110.0	502.08
78	79	91	1	110.0	502.08
78	79	105	1	110.0	502.08
80	79	91	1	110.0	502.08
80	79	105	1	110.0	502.08
91	79	105	1	110.0	502.08
50	51	7	1	110.0	502.08
50	51	21	1	110.0	502.08
52	51	7	1	110.0	502.08
52	51	21	1	110.0	502.08
7	51	21	1	110.0	502.08
106	107	63	1	110.0	502.08
106	107	77	1	110.0	502.08
108	107	63	1	110.0	502.08
108	107	77	1	110.0	502.08
63	107	77	1	110.0	502.08
15	16	62	1	110.0	502.08
15	16	84	1	110.0	502.08
17	16	62	1	110.0	502.08
17	16	84	1	110.0	502.08
62	16	84	1	110.0	502.08
43	44	90	1	110.0	502.08
43	44	112	1	110.0	502.08
45	44	90	1	110.0	502.08
45	44	112	1	110.0	502.08
90	44	112	1	110.0	502.08
71	72	6	1	110.0	502.08
71	72	28	1	110.0	502.08
73	72	6	1	110.0	502.08
73	72	28	1	110.0	502.08
6	72	28	1	110.0	502.08
99	100	34	1	110.0	502.08
99	100	56	1	110.0	502.08
101	100	34	1	110.0	502.08
101	100	56	1	110.0	502.08
34	100	56	1	110.0	502.08
4	1	98	1	110.0	502.08
2	1	98	1	110.000	502.080
3	1	98	1	109.5	292.88
60	57	42	1	110.0	502.08
58	57	42	1	110.000	502.080
59	57	42	1	109.5	292.88
32	29	70	1	110.0	502.08
30	29	70	1	110.000	502.080
31	29	70	1	109.5	292.88
88	85	14	1	110.0	502.08
86	85	14	1	110.000	502.080
87	85	14	1	109.5	292.88
13	14	85	1	180.0	167.36
1	3	113	1	109.5	292.88
9	11	114	1	109.5	292.88
9	10	115	1	109.5	292.88
29	31	116	1	109.5	292.88
37	39	117	1	109.5	292.88
37	38	118	1	109.5	292.88
57	59	119	1	109.5	292.88
65	67	120	1	109.5	292.88
65	66	121	1	109.5	292.88
85	87	122	1	109.5	292.88
93	95	123	1	109.5	292.88
93	94	124	1	109.5	292.88
125	126	127	1	107.200	433.462
126	127	128	1	109.470	470.282
127	128	129	1	109.500	418.400
128	129	130	1	111.000	627.600
129	130	131	1	120.000	585.760
130	131	132	1	120.000	527.184
131	132	133	1	120.000	527.184
132	133	134	1	120.000	527.184
133	134	135	1	120.000	527.184
134	135	136	1	120.000	527.184
135	136	137	1	120.000	527.184
136	137	138	1	109.5	0.0
136	137	139	1	120.000	527.184
133	134	140	1	120.000	527.184
132	133	141	1	120.000	527.184
129	130	142	1	120.000	585.760
125	126	143	1	116.000	418.400
126	143	144	1	120.000	585.760
143	144	145	1	120.000	527.184
144	145	146	1	120.000	527.184
145	146	147	1	124.000	585.760
146	147	148	1	117.000	711.280
147	148	149	1	124.000	585.760
148	149	150	1	124.000	585.760
149	150	151	1	124.000	585.760
150	151	152	1	124.000	585.760
151	152	153	1	124.000	585.760
152	153	154	1	124.000	585.760
153	154	155	1	117.000	711.280
154	155	156	1	118.760	505.678
155	156	157	1	124.000	585.760
156	157	158	1	180.000	1255.200
155	156	159	1	117.000	711.280
156	159	160	1	124.000	585.760
159	160	161	1	122.000	669.440
160	161	162	1	180.000	1255.200
159	160	163	1	122.000	669.440
160	163	164	1	180.000	1255.200
156	159	165	1	110.000	585.760
154	155	166	1	124.000	585.760
155	166	167	1	109.500	334.720
166	167	168	1	120.000	585.760
167	168	169	1	120.000	527.184
168	169	170	1	120.000	527.184
169	170	171	1	120.000	527.184
166	167	172	1	120.000	585.760
155	166	173	1	111.100	527.184
166	173	174	1	109.500	418.400
166	173	175	1	109.500	418.400
166	173	176	1	109.500	418.400
150	151	177	1	124.000	585.760
151	177	178	1	111.100	527.184
177	178	179	1	112.700	488.273
177	178	180	1	112.700	488.273
148	149	181	1	124.000	585.760
145	146	182	1	120.000	527.184
126	143	183	1	120.000	585.760
126	125	184	1	109.500	292.880
126	125	185	1	109.500	292.880
126	125	186	1	109.500	292.880
126	127	187	1	109.500	292.880
126	127	188	1	109.500	292.880
127	128	189	1	110.700	313.800
127	128	190	1	110.700	313.800
130	131	191	1	120.000	292.880
131	132	192	1	120.000	292.880
134	135	193	1	120.000	292.880
135	136	194	1	120.000	292.880
137	138	195	1	109.5	0.0
137	139	196	1	120.000	292.880
134	140	197	1	120.000	292.880
133	141	198	1	120.000	292.880
130	142	199	1	120.000	292.880
143	144	200	1	120.000	292.880
144	145	201	1	120.000	292.880
146	147	202	1	123.300	292.880
147	148	203	1	120.000	292.880
149	150	204	1	122.260	502.080
151	152	205	1	120.000	292.880
152	153	206	1	120.000	292.880
153	154	207	1	120.000	292.880
167	168	208	1	120.000	292.880
168	169	209	1	120.000	292.880
169	170	210	1	120.000	292.880
170	171	211	1	120.000	292.880
167	172	212	1	120.000	292.880
151	177	213	1	109.500	292.880
151	177	214	1	109.500	292.880
178	179	215	1	110.700	313.800
178	179	216	1	110.700	313.800
178	179	217	1	110.700	313.800
178	180	218	1	110.700	313.800
178	180	219	1	110.700	313.800
178	180	220	1	110.700	313.800
149	181	221	1	109.500	292.880
149	181	222	1	109.500	292.880
146	182	223	1	120.000	292.880
143	183	224	1	120.000	292.880
142	141	198	1	120.000	292.880
146	182	183	1	120.000	527.184
131	130	142	1	120.000	527.184
178	177	214	1	110.700	313.800
145	144	200	1	120.000	292.880
182	183	224	1	120.000	292.880
143	183	182	1	120.000	527.184
170	171	172	1	120.000	527.184
185	125	186	1	107.800	276.144
138	137	139	1	109.5	0.0
150	149	181	1	124.000	585.760
178	181	221	1	110.700	313.800
136	135	193	1	120.000	292.880
172	171	211	1	120.000	292.880
219	180	220	1	107.800	276.144
161	160	163	1	118.760	505.678
129	128	190	1	109.500	292.880
129	128	189	1	109.500	292.880
180	178	181	1	112.700	488.273
221	181	222	1	107.800	276.144
167	172	171	1	120.000	527.184
157	156	159	1	122.000	669.440
159	165	166	1	111.000	627.600
148	147	202	1	120.000	292.880
141	142	199	1	120.000	292.880
133	141	142	1	120.000	527.184
170	169	209	1	120.000	292.880
134	133	141	1	120.000	527.184
184	125	186	1	107.800	276.144
153	152	205	1	120.000	292.880
134	140	139	1	120.000	527.184
168	167	172	1	120.000	527.184
160	159	165	1	120.000	585.760
140	139	196	1	120.000	292.880
146	145	201	1	120.000	292.880
174	173	176	1	109.100	644.336
165	166	173	1	109.500	418.400
183	182	223	1	120.000	292.880
216	179	217	1	107.800	276.144
130	142	141	1	120.000	527.184
135	134	140	1	120.000	527.184
178	177	213	1	110.700	313.800
167	166	173	1	114.000	527.184
169	168	208	1	120.000	292.880
165	166	167	1	109.500	418.400
171	172	212	1	120.000	292.880
213	177	214	1	107.800	276.144
132	131	191	1	120.000	292.880
215	179	217	1	107.800	276.144
128	127	188	1	110.700	313.800
152	151	177	1	124.000	585.760
174	173	175	1	109.100	644.336
128	127	187	1	110.700	313.800
215	179	216	1	107.800	276.144
147	146	182	1	124.000	585.760
156	155	166	1	124.000	585.760
144	143	183	1	120.000	527.184
179	178	180	1	112.700	488.273
139	140	197	1	120.000	292.880
155	166	165	1	109.500	418.400
177	178	181	1	112.700	488.273
149	181	178	1	111.100	527.184
189	128	190	1	107.800	276.144
175	173	176	1	109.100	644.336
184	125	185	1	107.800	276.144
137	136	194	1	120.000	292.880
154	153	206	1	120.000	292.880
218	180	220	1	107.800	276.144
187	127	188	1	107.800	276.144
127	126	143	1	116.000	418.400
179	178	181	1	112.700	488.273
151	150	204	1	122.260	502.080
133	132	192	1	120.000	292.880
178	181	222	1	110.700	313.800
218	180	219	1	107.800	276.144
149	148	203	1	120.000	292.880
155	154	207	1	123.300	292.880
171	170	210	1	120.000	292.880
137	139	140	1	120.000	527.184
225	226	227	1	107.200	433.462
226	227	228	1	109.470	470.282
227	228	229	1	109.500	418.400
228	229	230	1	111.000	627.600
229	230	231	1	120.000	585.760
230	231	232	1	120.000	527.184
231	232	233	1	120.000	527.184
232	233	234	1	120.000	527.184
233	234	235	1	120.000	527.184
234	235	236	1	120.000	527.184
235	236	237	1	120.000	527.184
236	237	238	1	109.5	0.0
236	237	239	1	120.000	527.184
233	234	240	1	120.000	527.184
232	233	241	1	120.000	527.184
229	230	242	1	120.000	585.760
225	226	243	1	116.000	418.400
226	243	244	1	120.000	585.760
243	244	245	1	120.000	527.184
244	245	246	1	120.000	527.184
245	246	247	1	124.000	585.760
246	247	248	1	117.000	711.280
247	248	249	1	124.000	585.760
248	249	250	1	124.000	585.760
249	250	251	1	124.000	585.760
250	251	252	1	124.000	585.760
251	252	253	1	124.000	585.760
252	253	254	1	124.000	585.760
253	254	255	1	117.000	711.280
254	255	256	1	118.760	505.678
255	256	257	1	124.000	585.760
256	257	258	1	180.000	1255.200
255	256	259	1	117.000	711.280
256	259	260	1	124.000	585.760
259	260	261	1	122.000	669.440
260	261	262	1	180.000	1255.200
259	260	263	1	122.000	669.440
260	263	264	1	180.000	1255.200
256	259	265	1	110.000	585.760
254	255	266	1	124.000	585.760
255	266	267	1	109.500	334.720
266	267	268	1	120.000	585.760
267	268	269	1	120.000	527.184
268	269	270	1	120.000	527.184
269	270	271	1	120.000	527.184
266	267	272	1	120.000	585.760
255	266	273	1	111.100	527.184
266	273	274	1	109.500	418.400
266	273	275	1	109.500	418.400
266	273	276	1	109.500	418.400
250	251	277	1	124.000	585.760
251	277	278	1	111.100	527.184
277	278	279	1	112.700	488.273
277	278	280	1	112.700	488.273
248	249	281	1	124.000	585.760
245	246	282	1	120.000	527.184
226	243	283	1	120.000	585.760
226	225	284	1	109.500	292.880
226	225	285	1	109.500	292.880
226	225	286	1	109.500	292.880
226	227	287	1	109.500	292.880
226	227	288	1	109.500	292.880
227	228	289	1	110.700	313.800
227	228	290	1	110.700	313.800
230	231	291	1	120.000	292.880
231	232	292	1	120.000	292.880
234	235	293	1	120.000	292.880
235	236	294	1	120.000	292.880
237	238	295	1	109.5	0.0
237	239	296	1	120.000	292.880
234	240	297	1	120.000	292.880
233	241	298	1	120.000	292.880
230	242	299	1	120.000	292.880
243	244	300	1	120.000	292.880
244	245	301	1	120.000	292.880
246	247	302	1	123.300	292.880
247	248	303	1	120.000	292.880
249	250	304	1	122.260	502.080
251	252	305	1	120.000	292.880
252	253	306	1	120.000	292.880
253	254	307	1	120.000	292.880
267	268	308	1	120.000	292.880
268	269	309	1	120.000	292.880
269	270	310	1	120.000	292.880
270	271	311	1	120.000	292.880
267	272	312	1	120.000	292.880
251	277	313	1	109.500	292.880
251	277	314	1	109.500	292.880
278	279	315	1	110.700	313.800
278	279	316	1	110.700	313.800
278	279	317	1	110.700	313.800
278	280	318	1	110.700	313.800
278	280	319	1	110.700	313.800
278	280	320	1	110.700	313.800
249	281	321	1	109.500	292.880
249	281	322	1	109.500	292.880
246	282	323	1	120.000	292.880
243	283	324	1	120.000	292.880
242	241	298	1	120.000	292.880
246	282	283	1	120.000	527.184
231	230	242	1	120.000	527.184
278	277	314	1	110.700	313.800
245	244	300	1	120.000	292.880
282	283	324	1	120.000	292.880
243	283	282	1	120.000	527.184
270	271	272	1	120.000	527.184
285	225	286	1	107.800	276.144
238	237	239	1	109.5	0.0
250	249	281	1	124.000	585.760
278	281	321	1	110.700	313.800
236	235	293	1	120.000	292.880
272	271	311	1	120.000	292.880
319	280	320	1	107.800	276.144
261	260	263	1	118.760	505.678
229	228	290	1	109.500	292.880
229	228	289	1	109.500	292.880
280	278	281	1	112.700	488.273
321	281	322	1	107.800	276.144
267	272	271	1	120.000	527.184
257	256	259	1	122.000	669.440
259	265	266	1	111.000	627.600
248	247	302	1	120.000	292.880
241	242	299	1	120.000	292.880
233	241	242	1	120.000	527.184
270	269	309	1	120.000	292.880
234	233	241	1	120.000	527.184
284	225	286	1	107.800	276.144
253	252	305	1	120.000	292.880
234	240	239	1	120.000	527.184
268	267	272	1	120.000	527.184
260	259	265	1	120.000	585.760
240	239	296	1	120.000	292.880
246	245	301	1	120.000	292.880
274	273	276	1	109.100	644.336
265	266	273	1	109.500	418.400
283	282	323	1	120.000	292.880
316	279	317	1	107.800	276.144
230	242	241	1	120.000	527.184
235	234	240	1	120.000	527.184
278	277	313	1	110.700	313.800
267	266	273	1	114.000	527.184
269	268	308	1	120.000	292.880
265	266	267	1	109.500	418.400
271	272	312	1	120.000	292.880
313	277	314	1	107.800	276.144
232	231	291	1	120.000	292.880
315	279	317	1	107.800	276.144
228	227	288	1	110.700	313.800
252	251	277	1	124.000	585.760
274	273	275	1	109.100	644.336
228	227	287	1	110.700	313.800
315	279	316	1	107.800	276.144
247	246	282	1	124.000	585.760
256	255	266	1	124.000	585.760
244	243	283	1	120.000	527.184
279	278	280	1	112.700	488.273
239	240	297	1	120.000	292.880
255	266	265	1	109.500	418.400
277	278	281	1	112.700	488.273
249	281	278	1	111.100	527.184
289	228	290	1	107.800	276.144
275	273	276	1	109.100	644.336
284	225	285	1	107.800	276.144
237	236	294	1	120.000	292.880
254	253	306	1	120.000	292.880
318	280	320	1	107.800	276.144
287	227	288	1	107.800	276.144
227	226	243	1	116.000	418.400
279	278	281	1	112.700	488.273
251	250	304	1	122.260	502.080
233	232	292	1	120.000	292.880
278	281	322	1	110.700	313.800
318	280	319	1	107.800	276.144
249	248	303	1	120.000	292.880
255	254	307	1	123.300	292.880
271	270	310	1	120.000	292.880
237	239	240	1	120.000	527.184
325	326	327	1	107.200	433.462
326	327	328	1	109.470	470.282
327	328	329	1	109.500	418.400
328	329	330	1	111.000	627.600
329	330	331	1	120.000	585.760
330	331	332	1	120.000	527.184
331	332	333	1	120.000	527.184
332	333	334	1	120.000	527.184
333	334	335	1	120.000	527.184
334	335	336	1	120.000	527.184
335	336	337	1	120.000	527.184
336	337	338	1	109.5	0.0
336	337	339	1	120.000	527.184
333	334	340	1	120.000	527.184
332	333	341	1	120.000	527.184
329	330	342	1	120.000	585.760
325	326	343	1	116.000	418.400
326	343	344	1	120.000	585.760
343	344	345	1	120.000	527.184
344	345	346	1	120.000	527.184
345	346	347	1	124.000	585.760
346	347	348	1	117.000	711.280
347	348	349	1	124.000	585.760
348	349	350	1	124.000	585.760
349	350	351	1	124.000	585.760
350	351	352	1	124.000	585.760
351	352	353	1	124.000	585.760
352	353	354	1	124.000	585.760
353	354	355	1	117.000	711.280
354	355	356	1	118.760	505.678
355	356	357	1	124.000	585.760
356	357	358	1	180.000	1255.200
355	356	359	1	117.000	711.280
356	359	360	1	124.000	585.760
359	360	361	1	122.000	669.440
360	361	362	1	180.000	1255.200
359	360	363	1	122.000	669.440
360	363	364	1	180.000	1255.200
356	359	365	1	110.000	585.760
354	355	366	1	124.000	585.760
355	366	367	1	109.500	334.720
366	367	368	1	120.000	585.760
367	368	369	1	120.000	527.184
368	369	370	1	120.000	527.184
369	370	371	1	120.000	527.184
366	367	372	1	120.000	585.760
355	366	373	1	111.100	527.184
366	373	374	1	109.500	418.400
366	373	375	1	109.500	418.400
366	373	376	1	109.500	418.400
350	351	377	1	124.000	585.760
351	377	378	1	111.100	527.184
377	378	379	1	112.700	488.273
377	378	380	1	112.700	488.273
348	349	381	1	124.000	585.760
345	346	382	1	120.000	527.184
326	343	383	1	120.000	585.760
326	325	384	1	109.500	292.880
326	325	385	1	109.500	292.880
326	325	386	1	109.500	292.880
326	327	387	1	109.500	292.880
326	327	388	1	109.500	292.880
327	328	389	1	110.700	313.800
327	328	390	1	110.700	313.800
330	331	391	1	120.000	292.880
331	332	392	1	120.000	292.880
334	335	393	1	120.000	292.880
335	336	394	1	120.000	292.880
337	338	395	1	109.5	0.0
337	339	396	1	120.000	292.880
334	340	397	1	120.000	292.880
333	341	398	1	120.000	292.880
330	342	399	1	120.000	292.880
343	344	400	1	120.000	292.880
344	345	401	1	120.000	292.880
346	347	402	1	123.300	292.880
347	348	403	1	120.000	292.880
349	350	404	1	122.260	502.080
351	352	405	1	120.000	292.880
352	353	406	1	120.000	292.880
353	354	407	1	120.000	292.880
367	368	408	1	120.000	292.880
368	369	409	1	120.000	292.880
369	370	410	1	120.000	292.880
370	371	411	1	120.000	292.880
367	372	412	1	120.000	292.880
351	377	413	1	109.500	292.880
351	377	414	1	109.500	292.880
378	379	415	1	110.700	313.800
378	379	416	1	110.700	313.800
378	379	417	1	110.700	313.800
378	380	418	1	110.700	313.800
378	380	419	1	110.700	313.800
378	380	420	1	110.700	313.800
349	381	421	1	109.500	292.880
349	381	422	1	109.500	292.880
346	382	423	1	120.000	292.880
343	383	424	1	120.000	292.880
342	341	398	1	120.000	292.880
346	382	383	1	120.000	527.184
331	330	342	1	120.000	527.184
378	377	414	1	110.700	313.800
345	344	400	1	120.000	292.880
382	383	424	1	120.000	292.880
343	383	382	1	120.000	527.184
370	371	372	1	120.000	527.184
385	325	386	1	107.800	276.144
338	337	339	1	109.5	0.0
350	349	381	1	124.000	585.760
378	381	421	1	110.700	313.800
336	335	393	1	120.000	292.880
372	371	411	1	120.000	292.880
419	380	420	1	107.800	276.144
361	360	363	1	118.760	505.678
329	328	390	1	109.500	292.880
329	328	389	1	109.500	292.880
380	378	381	1	112.700	488.273
421	381	422	1	107.800	276.144
367	372	371	1	120.000	527.184
357	356	359	1	122.000	669.440
359	365	366	1	111.000	627.600
348	347	402	1	120.000	292.880
341	342	399	1	120.000	292.880
333	341	342	1	120.000	527.184
370	369	409	1	120.000	292.880
334	333	341	1	120.000	527.184
384	325	386	1	107.800	276.144
353	352	405	1	120.000	292.880
334	340	339	1	120.000	527.184
368	367	372	1	120.000	527.184
360	359	365	1	120.000	585.760
340	339	396	1	120.000	292.880
346	345	401	1	120.000	292.880
374	373	376	1	109.100	644.336
365	366	373	1	109.500	418.400
383	382	423	1	120.000	292.880
416	379	417	1	107.800	276.144
330	342	341	1	120.000	527.184
335	334	340	1	120.000	527.184
378	377	413	1	110.700	313.800
367	366	373	1	114.000	527.184
369	368	408	1	120.000	292.880
365	366	367	1	109.500	418.400
371	372	412	1	120.000	292.880
413	377	414	1	107.800	276.144
332	331	391	1	120.000	292.880
415	379	417	1	107.800	276.144
328	327	388	1	110.700	313.800
352	351	377	1	124.000	585.760
374	373	375	1	109.100	644.336
328	327	387	1	110.700	313.800
415	379	416	1	107.800	276.144
347	346	382	1	124.000	585.760
356	355	366	1	124.000	585.760
344	343	383	1	120.000	527.184
379	378	380	1	112.700	488.273
339	340	397	1	120.000	292.880
355	366	365	1	109.500	418.400
377	378	381	1	112.700	488.273
349	381	378	1	111.100	527.184
389	328	390	1	107.800	276.144
375	373	376	1	109.100	644.336
384	325	385	1	107.800	276.144
337	336	394	1	120.000	292.880
354	353	406	1	120.000	292.880
418	380	420	1	107.800	276.144
387	327	388	1	107.800	276.144
327	326	343	1	116.000	418.400
379	378	381	1	112.700	488.273
351	350	404	1	122.260	502.080
333	332	392	1	120.000	292.880
378	381	422	1	110.700	313.800
418	380	419	1	107.800	276.144
349	348	403	1	120.000	292.880
355	354	407	1	123.300	292.880
371	370	410	1	120.000	292.880
337	339	340	1	120.000	527.184
425	426	427	1	107.200	433.462
426	427	428	1	109.470	470.282
427	428	429	1	109.500	418.400
428	429	430	1	111.000	627.600
429	430	431	1	120.000	585.760
430	431	432	1	120.000	527.184
431	432	433	1	120.000	527.184
432	433	434	1	120.000	527.184
433	434	435	1	120.000	527.184
434	435	436	1	120.000	527.184
435	436	437	1	120.000	527.184
436	437	438	1	109.5	0.0
436	437	439	1	120.000	527.184
433	434	440	1	120.000	527.184
432	433	441	1	120.000	527.184
429	430	442	1	120.000	585.760
425	426	443	1	116.000	418.400
426	443	444	1	120.000	585.760
443	444	445	1	120.000	527.184
444	445	446	1	120.000	527.184
445	446	447	1	124.000	585.760
446	447	448	1	117.000	711.280
447	448	449	1	124.000	585.760
448	449	450	1	124.000	585.760
449	450	451	1	124.000	585.760
450	451	452	1	124.000	585.760
451	452	453	1	124.000	585.760
452	453	454	1	124.000	585.760
453	454	455	1	117.000	711.280
454	455	456	1	118.760	505.678
455	456	457	1	124.000	585.760
456	457	458	1	180.000	1255.200
455	456	459	1	117.000	711.280
456	459	460	1	124.000	585.760
459	460	461	1	122.000	669.440
460	461	462	1	180.000	1255.200
459	460	463	1	122.000	669.440
460	463	464	1	180.000	1255.200
456	459	465	1	110.000	585.760
454	455	466	1	124.000	585.760
455	466	467	1	109.500	334.720
466	467	468	1	120.000	585.760
467	468	469	1	120.000	527.184
468	469	470	1	120.000	527.184
469	470	471	1	120.000	527.184
466	467	472	1	120.000	585.760
455	466	473	1	111.100	527.184
466	473	474	1	109.500	418.400
466	473	475	1	109.500	418.400
466	473	476	1	109.500	418.400
450	451	477	1	124.000	585.760
451	477	478	1	111.100	527.184
477	478	479	1	112.700	488.273
477	478	480	1	112.700	488.273
448	449	481	1	124.000	585.760
445	446	482	1	120.000	527.184
426	443	483	1	120.000	585.760
426	425	484	1	109.500	292.880
426	425	485	1	109.500	292.880
426	425	486	1	109.500	292.880
426	427	487	1	109.500	292.880
426	427	488	1	109.500	292.880
427	428	489	1	110.700	313.800
427	428	490	1	110.700	313.800
430	431	491	1	120.000	292.880
431	432	492	1	120.000	292.880
434	435	493	1	120.000	292.880
435	436	494	1	120.000	292.880
437	438	495	1	109.5	0.0
437	439	496	1	120.000	292.880
434	440	497	1	120.000	292.880
433	441	498	1	120.000	292.880
430	442	499	1	120.000	292.880
443	444	500	1	120.000	292.880
444	445	501	1	120.000	292.880
446	447	502	1	123.300	292.880
447	448	503	1	120.000	292.880
449	450	504	1	122.260	502.080
451	452	505	1	120.000	292.880
452	453	506	1	120.000	292.880
453	454	507	1	120.000	292.880
467	468	508	1	120.000	292.880
468	469	509	1	120.000	292.880
469	470	510	1	120.000	292.880
470	471	511	1	120.000	292.880
467	472	512	1	120.000	292.880
451	477	513	1	109.500	292.880
451	477	514	1	109.500	292.880
478	479	515	1	110.700	313.800
478	479	516	1	110.700	313.800
478	479	517	1	110.700	313.800
478	480	518	1	110.700	313.800
478	480	519	1	110.700	313.800
478	480	520	1	110.700	313.800
449	481	521	1	109.500	292.880
449	481	522	1	109.500	292.880
446	482	523	1	120.000	292.880
443	483	524	1	120.000	292.880
442	441	498	1	120.000	292.880
446	482	483	1	120.000	527.184
431	430	442	1	120.000	527.184
478	477	514	1	110.700	313.800
445	444	500	1	120.000	292.880
482	483	524	1	120.000	292.880
443	483	482	1	120.000	527.184
470	471	472	1	120.000	527.184
485	425	486	1	107.800	276.144
438	437	439	1	109.5	0.0
450	449	481	1	124.000	585.760
478	481	521	1	110.700	313.800
436	435	493	1	120.000	292.880
472	471	511	1	120.000	292.880
519	480	520	1	107.800	276.144
461	460	463	1	118.760	505.678
429	428	490	1	109.500	292.880
429	428	489	1	109.500	292.880
480	478	481	1	112.700	488.273
521	481	522	1	107.800	276.144
467	472	471	1	120.000	527.184
457	456	459	1	122.000	669.440
459	465	466	1	111.000	627.600
448	447	502	1	120.000	292.880
441	442	499	1	120.000	292.880
433	441	442	1	120.000	527.184
470	469	509	1	120.000	292.880
434	433	441	1	120.000	527.184
484	425	486	1	107.800	276.144
453	452	505	1	120.000	292.880
434	440	439	1	120.000	527.184
468	467	472	1	120.000	527.184
460	459	465	1	120.000	585.760
440	439	496	1	120.000	292.880
446	445	501	1	120.000	292.880
474	473	476	1	109.100	644.336
465	466	473	1	109.500	418.400
483	482	523	1	120.000	292.880
516	479	517	1	107.800	276.144
430	442	441	1	120.000	527.184
435	434	440	1	120.000	527.184
478	477	513	1	110.700	313.800
467	466	473	1	114.000	527.184
469	468	508	1	120.000	292.880
465	466	467	1	109.500	418.400
471	472	512	1	120.000	292.880
513	477	514	1	107.800	276.144
432	431	491	1	120.000	292.880
515	479	517	1	107.800	276.144
428	427	488	1	110.700	313.800
452	451	477	1	124.000	585.760
474	473	475	1	109.100	644.336
428	427	487	1	110.700	313.800
515	479	516	1	107.800	276.144
447	446	482	1	124.000	585.760
456	455	466	1	124.000	585.760
444	443	483	1	120.000	527.184
479	478	480	1	112.700	488.273
439	440	497	1	120.000	292.880
455	466	465	1	109.500	418.400
477	478	481	1	112.700	488.273
449	481	478	1	111.100	527.184
489	428	490	1	107.800	276.144
475	473	476	1	109.100	644.336
484	425	485	1	107.800	276.144
437	436	494	1	120.000	292.880
454	453	506	1	120.000	292.880
518	480	520	1	107.800	276.144
487	427	488	1	107.800	276.144
427	426	443	1	116.000	418.400
479	478	481	1	112.700	488.273
451	450	504	1	122.260	502.080
433	432	492	1	120.000	292.880
478	481	522	1	110.700	313.800
518	480	519	1	107.800	276.144
449	448	503	1	120.000	292.880
455	454	507	1	123.300	292.880
471	470	510	1	120.000	292.880
437	439	440	1	120.000	527.184
[ dihedrals ] 
; IMPROPER DIHEDRAL ANGLES
;  ai    aj    ak    al funct            c0            c1            c2            c3            c4            c5

140	134	133	135	4	180.000	10.460	2
141	133	132	134	4	180.000	10.460	2
182	146	145	147	4	180.000	10.460	2
139	137	136	138	4	180.0	0.0	2
172	167	166	168	4	180.000	10.460	2
183	143	126	144	4	180.000	10.460	2
142	130	129	131	4	180.000	10.460	2
177	151	150	152	4	180.000	10.460	2
181	149	148	150	4	180.000	10.460	2
166	155	154	156	4	180.000	10.460	2
159	156	155	157	4	180.000	10.460	2
163	160	159	161	4	180.000	10.460	2
204	150	149	151	4	180.000	10.460	2
197	140	134	139	4	180.000	10.460	2
193	135	134	136	4	180.000	10.460	2
198	141	133	142	4	180.000	10.460	2
192	132	131	133	4	180.000	10.460	2
194	136	135	137	4	180.000	10.460	2
191	131	130	132	4	180.000	10.460	2
200	144	143	145	4	180.000	10.460	2
201	145	144	146	4	180.000	10.460	2
208	168	167	169	4	180.000	10.460	2
196	139	137	140	4	180.000	10.460	2
209	169	168	170	4	180.000	10.460	2
211	171	170	172	4	180.000	10.460	2
212	172	167	171	4	180.000	10.460	2
224	183	143	182	4	180.000	10.460	2
223	182	146	183	4	180.000	10.460	2
210	170	169	171	4	180.000	10.460	2
199	142	130	141	4	180.000	10.460	2
203	148	147	149	4	180.000	10.460	2
206	153	152	154	4	180.000	10.460	2
205	152	151	153	4	180.000	10.460	2
207	154	153	155	4	180.000	10.460	2
202	147	146	148	4	180.000	10.460	2
165	159	156	160	4	180.000	10.460	2
240	234	233	235	4	180.000	10.460	2
241	233	232	234	4	180.000	10.460	2
282	246	245	247	4	180.000	10.460	2
239	237	236	238	4	180.0	0.0	2
272	267	266	268	4	180.000	10.460	2
283	243	226	244	4	180.000	10.460	2
242	230	229	231	4	180.000	10.460	2
277	251	250	252	4	180.000	10.460	2
281	249	248	250	4	180.000	10.460	2
266	255	254	256	4	180.000	10.460	2
259	256	255	257	4	180.000	10.460	2
263	260	259	261	4	180.000	10.460	2
304	250	249	251	4	180.000	10.460	2
297	240	234	239	4	180.000	10.460	2
293	235	234	236	4	180.000	10.460	2
298	241	233	242	4	180.000	10.460	2
292	232	231	233	4	180.000	10.460	2
294	236	235	237	4	180.000	10.460	2
291	231	230	232	4	180.000	10.460	2
300	244	243	245	4	180.000	10.460	2
301	245	244	246	4	180.000	10.460	2
308	268	267	269	4	180.000	10.460	2
296	239	237	240	4	180.000	10.460	2
309	269	268	270	4	180.000	10.460	2
311	271	270	272	4	180.000	10.460	2
312	272	267	271	4	180.000	10.460	2
324	283	243	282	4	180.000	10.460	2
323	282	246	283	4	180.000	10.460	2
310	270	269	271	4	180.000	10.460	2
299	242	230	241	4	180.000	10.460	2
303	248	247	249	4	180.000	10.460	2
306	253	252	254	4	180.000	10.460	2
305	252	251	253	4	180.000	10.460	2
307	254	253	255	4	180.000	10.460	2
302	247	246	248	4	180.000	10.460	2
265	259	256	260	4	180.000	10.460	2
340	334	333	335	4	180.000	10.460	2
341	333	332	334	4	180.000	10.460	2
382	346	345	347	4	180.000	10.460	2
339	337	336	338	4	180.0	0.0	2
372	367	366	368	4	180.000	10.460	2
383	343	326	344	4	180.000	10.460	2
342	330	329	331	4	180.000	10.460	2
377	351	350	352	4	180.000	10.460	2
381	349	348	350	4	180.000	10.460	2
366	355	354	356	4	180.000	10.460	2
359	356	355	357	4	180.000	10.460	2
363	360	359	361	4	180.000	10.460	2
404	350	349	351	4	180.000	10.460	2
397	340	334	339	4	180.000	10.460	2
393	335	334	336	4	180.000	10.460	2
398	341	333	342	4	180.000	10.460	2
392	332	331	333	4	180.000	10.460	2
394	336	335	337	4	180.000	10.460	2
391	331	330	332	4	180.000	10.460	2
400	344	343	345	4	180.000	10.460	2
401	345	344	346	4	180.000	10.460	2
408	368	367	369	4	180.000	10.460	2
396	339	337	340	4	180.000	10.460	2
409	369	368	370	4	180.000	10.460	2
411	371	370	372	4	180.000	10.460	2
412	372	367	371	4	180.000	10.460	2
424	383	343	382	4	180.000	10.460	2
423	382	346	383	4	180.000	10.460	2
410	370	369	371	4	180.000	10.460	2
399	342	330	341	4	180.000	10.460	2
403	348	347	349	4	180.000	10.460	2
406	353	352	354	4	180.000	10.460	2
405	352	351	353	4	180.000	10.460	2
407	354	353	355	4	180.000	10.460	2
402	347	346	348	4	180.000	10.460	2
365	359	356	360	4	180.000	10.460	2
440	434	433	435	4	180.000	10.460	2
441	433	432	434	4	180.000	10.460	2
482	446	445	447	4	180.000	10.460	2
439	437	436	438	4	180.0	0.0	2
472	467	466	468	4	180.000	10.460	2
483	443	426	444	4	180.000	10.460	2
442	430	429	431	4	180.000	10.460	2
477	451	450	452	4	180.000	10.460	2
481	449	448	450	4	180.000	10.460	2
466	455	454	456	4	180.000	10.460	2
459	456	455	457	4	180.000	10.460	2
463	460	459	461	4	180.000	10.460	2
504	450	449	451	4	180.000	10.460	2
497	440	434	439	4	180.000	10.460	2
493	435	434	436	4	180.000	10.460	2
498	441	433	442	4	180.000	10.460	2
492	432	431	433	4	180.000	10.460	2
494	436	435	437	4	180.000	10.460	2
491	431	430	432	4	180.000	10.460	2
500	444	443	445	4	180.000	10.460	2
501	445	444	446	4	180.000	10.460	2
508	468	467	469	4	180.000	10.460	2
496	439	437	440	4	180.000	10.460	2
509	469	468	470	4	180.000	10.460	2
511	471	470	472	4	180.000	10.460	2
512	472	467	471	4	180.000	10.460	2
524	483	443	482	4	180.000	10.460	2
523	482	446	483	4	180.000	10.460	2
510	470	469	471	4	180.000	10.460	2
499	442	430	441	4	180.000	10.460	2
503	448	447	449	4	180.000	10.460	2
506	453	452	454	4	180.000	10.460	2
505	452	451	453	4	180.000	10.460	2
507	454	453	455	4	180.000	10.460	2
502	447	446	448	4	180.000	10.460	2
465	459	456	460	4	180.000	10.460	2
1	2	137	139	3	12.552	0.0	-12.552	-0.0	-0.0	0.0
1	2	137	136	3	12.552	0.0	-12.552	-0.0	-0.0	0.0
29	30	237	239	3	12.552	0.0	-12.552	-0.0	-0.0	0.0
29	30	237	236	3	12.552	0.0	-12.552	-0.0	-0.0	0.0
57	58	337	339	3	12.552	0.0	-12.552	-0.0	-0.0	0.0
57	58	337	336	3	12.552	0.0	-12.552	-0.0	-0.0	0.0
85	86	437	439	3	12.552	0.0	-12.552	-0.0	-0.0	0.0
85	86	437	436	3	12.552	0.0	-12.552	-0.0	-0.0	0.0
; PROPER DIHEDRAL ANGLES
;  ai    aj    ak    al funct            c0            c1            c2            c3            c4            c5

134	133	132	131	3	30.334	0.000	-30.334	-0.000	-0.000	0.000
133	141	142	130	3	30.334	0.000	-30.334	-0.000	-0.000	0.000
133	132	131	130	3	30.334	0.000	-30.334	-0.000	-0.000	0.000
154	153	152	151	3	21.738	2.408	-16.966	-7.180	-0.000	0.000
150	149	148	147	3	21.738	2.408	-16.966	-7.180	-0.000	0.000
151	150	149	148	3	21.738	2.408	-16.966	-7.180	-0.000	0.000
152	151	150	149	3	21.738	2.408	-16.966	-7.180	-0.000	0.000
153	152	151	150	3	21.738	2.408	-16.966	-7.180	-0.000	0.000
149	148	147	146	3	58.576	0.000	-58.576	-0.000	-0.000	0.000
148	147	146	145	3	16.027	-4.391	-14.029	2.393	-0.000	0.000
147	146	145	144	3	30.334	0.000	-30.334	-0.000	-0.000	0.000
156	155	154	153	3	58.576	0.000	-58.576	-0.000	-0.000	0.000
141	133	134	140	3	9.079	0.000	-9.079	-0.000	-0.000	0.000
140	134	133	132	3	9.079	0.000	-9.079	-0.000	-0.000	0.000
141	133	134	135	3	9.079	0.000	-9.079	-0.000	-0.000	0.000
135	134	133	132	3	9.079	0.000	-9.079	-0.000	-0.000	0.000
140	134	135	136	3	30.334	0.000	-30.334	-0.000	-0.000	0.000
141	133	132	131	3	30.334	0.000	-30.334	-0.000	-0.000	0.000
139	140	134	133	3	30.334	0.000	-30.334	-0.000	-0.000	0.000
142	141	133	134	3	30.334	0.000	-30.334	-0.000	-0.000	0.000
136	135	134	133	3	30.334	0.000	-30.334	-0.000	-0.000	0.000
139	140	134	135	3	30.334	0.000	-30.334	-0.000	-0.000	0.000
142	141	133	132	3	30.334	0.000	-30.334	-0.000	-0.000	0.000
182	146	147	148	3	16.027	-4.391	-14.029	2.393	-0.000	0.000
137	139	140	134	3	30.334	0.000	-30.334	-0.000	-0.000	0.000
137	136	135	134	3	30.334	0.000	-30.334	-0.000	-0.000	0.000
183	182	146	147	3	30.334	0.000	-30.334	-0.000	-0.000	0.000
172	167	168	169	3	30.334	0.000	-30.334	-0.000	-0.000	0.000
183	182	146	145	3	30.334	0.000	-30.334	-0.000	-0.000	0.000
142	130	131	132	3	30.334	0.000	-30.334	-0.000	-0.000	0.000
182	183	143	144	3	30.334	0.000	-30.334	-0.000	-0.000	0.000
172	171	170	169	3	30.334	0.000	-30.334	-0.000	-0.000	0.000
171	170	169	168	3	30.334	0.000	-30.334	-0.000	-0.000	0.000
170	169	168	167	3	30.334	0.000	-30.334	-0.000	-0.000	0.000
146	145	144	143	3	30.334	0.000	-30.334	-0.000	-0.000	0.000
146	182	183	143	3	30.334	0.000	-30.334	-0.000	-0.000	0.000
183	143	144	145	3	30.334	0.000	-30.334	-0.000	-0.000	0.000
182	146	145	144	3	30.334	0.000	-30.334	-0.000	-0.000	0.000
171	172	167	168	3	30.334	0.000	-30.334	-0.000	-0.000	0.000
140	139	137	136	3	30.334	0.000	-30.334	-0.000	-0.000	0.000
141	142	130	131	3	30.334	0.000	-30.334	-0.000	-0.000	0.000
170	171	172	167	3	30.334	0.000	-30.334	-0.000	-0.000	0.000
139	137	136	135	3	30.334	0.000	-30.334	-0.000	-0.000	0.000
171	172	167	166	3	30.334	0.000	-30.334	-0.000	-0.000	0.000
169	168	167	166	3	30.334	0.000	-30.334	-0.000	-0.000	0.000
182	183	143	126	3	30.334	0.000	-30.334	-0.000	-0.000	0.000
145	144	143	126	3	30.334	0.000	-30.334	-0.000	-0.000	0.000
140	139	137	138	3	0.0	0.0	0.0	-0.0	-0.0	0.0
132	131	130	129	3	30.334	0.000	-30.334	-0.000	-0.000	0.000
141	142	130	129	3	30.334	0.000	-30.334	-0.000	-0.000	0.000
172	167	166	155	3	0.000	0.000	0.000	-0.000	-0.000	0.000
168	167	166	155	3	0.000	0.000	0.000	-0.000	-0.000	0.000
172	167	166	165	3	0.000	0.000	0.000	-0.000	-0.000	0.000
168	167	166	165	3	0.000	0.000	0.000	-0.000	-0.000	0.000
183	143	126	127	3	5.184	35.932	-14.355	-26.761	-0.000	0.000
144	143	126	127	3	5.184	35.932	-14.355	-26.761	-0.000	0.000
144	143	126	125	3	5.184	35.932	-14.355	-26.761	-0.000	0.000
183	143	126	125	3	5.184	35.932	-14.355	-26.761	-0.000	0.000
131	130	129	128	3	12.552	0.000	-12.552	-0.000	-0.000	0.000
142	130	129	128	3	12.552	0.000	-12.552	-0.000	-0.000	0.000
167	166	155	154	3	6.322	-2.485	0.707	-4.544	-0.000	0.000
167	166	155	156	3	0.527	-6.397	-1.695	7.565	-0.000	0.000
167	166	165	159	3	1.715	2.845	1.046	-5.607	-0.000	0.000
143	126	127	128	3	1.789	3.492	0.536	-5.816	-0.000	0.000
130	129	128	127	3	1.715	2.845	1.046	-5.607	-0.000	0.000
173	166	167	168	3	0.000	0.000	0.000	-0.000	-0.000	0.000
173	166	167	172	3	0.000	0.000	0.000	-0.000	-0.000	0.000
173	166	155	154	3	6.322	-2.485	0.707	-4.544	-0.000	0.000
173	166	155	156	3	0.527	-6.397	-1.695	7.565	-0.000	0.000
173	166	165	159	3	1.715	2.845	1.046	-5.607	-0.000	0.000
155	154	153	152	3	21.738	2.408	-16.966	-7.180	-0.000	0.000
160	159	156	155	3	21.738	2.408	-16.966	-7.180	-0.000	0.000
160	159	156	157	3	-0.778	-2.335	0.000	3.113	-0.000	0.000
181	149	148	147	3	58.576	0.000	-58.576	-0.000	-0.000	0.000
177	151	150	149	3	58.576	0.000	-58.576	-0.000	-0.000	0.000
181	149	150	151	3	58.576	0.000	-58.576	-0.000	-0.000	0.000
177	151	152	153	3	58.576	0.000	-58.576	-0.000	-0.000	0.000
166	155	154	153	3	-0.778	-2.335	0.000	3.113	-0.000	0.000
166	155	156	159	3	58.576	0.000	-58.576	-0.000	-0.000	0.000
166	155	156	157	3	58.576	0.000	-58.576	-0.000	-0.000	0.000
178	181	149	148	3	0.527	-6.397	-1.695	7.565	-0.000	0.000
178	177	151	152	3	0.527	-6.397	-1.695	7.565	-0.000	0.000
178	177	151	150	3	0.527	-6.397	-1.695	7.565	-0.000	0.000
178	181	149	150	3	0.527	-6.397	-1.695	7.565	-0.000	0.000
181	178	177	151	3	2.301	-1.464	0.837	-1.674	-0.000	0.000
180	178	181	149	3	2.301	-1.464	0.837	-1.674	-0.000	0.000
177	178	181	149	3	2.301	-1.464	0.837	-1.674	-0.000	0.000
179	178	181	149	3	2.301	-1.464	0.837	-1.674	-0.000	0.000
180	178	177	151	3	2.301	-1.464	0.837	-1.674	-0.000	0.000
179	178	177	151	3	2.301	-1.464	0.837	-1.674	-0.000	0.000
128	127	126	125	3	1.789	3.492	0.536	-5.816	-0.000	0.000
166	165	159	156	3	30.334	0.000	-30.334	-0.000	-0.000	0.000
166	165	159	160	3	30.334	0.000	-30.334	-0.000	-0.000	0.000
159	156	155	154	3	58.576	0.000	-58.576	-0.000	-0.000	0.000
159	165	166	155	3	1.715	2.845	1.046	-5.607	-0.000	0.000
157	156	155	154	3	58.576	0.000	-58.576	-0.000	-0.000	0.000
161	160	159	156	3	58.576	0.000	-58.576	-0.000	-0.000	0.000
163	160	159	156	3	58.576	0.000	-58.576	-0.000	-0.000	0.000
174	173	166	167	3	0.000	0.000	0.000	-0.000	-0.000	0.000
175	173	166	167	3	0.000	0.000	0.000	-0.000	-0.000	0.000
176	173	166	167	3	0.000	0.000	0.000	-0.000	-0.000	0.000
175	173	166	155	3	0.000	0.000	0.000	-0.000	-0.000	0.000
174	173	166	155	3	0.000	0.000	0.000	-0.000	-0.000	0.000
176	173	166	155	3	0.000	0.000	0.000	-0.000	-0.000	0.000
175	173	166	165	3	1.130	3.389	0.000	-4.519	-0.000	0.000
176	173	166	165	3	1.130	3.389	0.000	-4.519	-0.000	0.000
174	173	166	165	3	1.130	3.389	0.000	-4.519	-0.000	0.000
204	150	149	148	3	58.576	0.000	-58.576	-0.000	-0.000	0.000
204	150	151	152	3	58.576	0.000	-58.576	-0.000	-0.000	0.000
204	150	151	177	3	58.576	0.000	-58.576	-0.000	-0.000	0.000
204	150	149	181	3	58.576	0.000	-58.576	-0.000	-0.000	0.000
193	135	134	133	3	30.334	0.000	-30.334	-0.000	-0.000	0.000
192	132	133	134	3	30.334	0.000	-30.334	-0.000	-0.000	0.000
198	141	133	134	3	30.334	0.000	-30.334	-0.000	-0.000	0.000
197	140	134	133	3	30.334	0.000	-30.334	-0.000	-0.000	0.000
197	140	134	135	3	30.334	0.000	-30.334	-0.000	-0.000	0.000
193	135	134	140	3	30.334	0.000	-30.334	-0.000	-0.000	0.000
192	132	133	141	3	30.334	0.000	-30.334	-0.000	-0.000	0.000
198	141	133	132	3	30.334	0.000	-30.334	-0.000	-0.000	0.000
191	131	132	133	3	30.334	0.000	-30.334	-0.000	-0.000	0.000
199	142	141	133	3	30.334	0.000	-30.334	-0.000	-0.000	0.000
194	136	135	134	3	30.334	0.000	-30.334	-0.000	-0.000	0.000
196	139	140	134	3	30.334	0.000	-30.334	-0.000	-0.000	0.000
201	145	146	147	3	30.334	0.000	-30.334	-0.000	-0.000	0.000
223	182	146	147	3	30.334	0.000	-30.334	-0.000	-0.000	0.000
208	168	169	170	3	30.334	0.000	-30.334	-0.000	-0.000	0.000
196	139	137	136	3	30.334	0.000	-30.334	-0.000	-0.000	0.000
211	171	170	169	3	30.334	0.000	-30.334	-0.000	-0.000	0.000
223	182	183	143	3	30.334	0.000	-30.334	-0.000	-0.000	0.000
209	169	168	167	3	30.334	0.000	-30.334	-0.000	-0.000	0.000
224	183	182	146	3	30.334	0.000	-30.334	-0.000	-0.000	0.000
210	170	169	168	3	30.334	0.000	-30.334	-0.000	-0.000	0.000
199	142	130	131	3	30.334	0.000	-30.334	-0.000	-0.000	0.000
198	141	142	130	3	30.334	0.000	-30.334	-0.000	-0.000	0.000
223	182	146	145	3	30.334	0.000	-30.334	-0.000	-0.000	0.000
224	183	143	144	3	30.334	0.000	-30.334	-0.000	-0.000	0.000
211	171	172	167	3	30.334	0.000	-30.334	-0.000	-0.000	0.000
208	168	167	172	3	30.334	0.000	-30.334	-0.000	-0.000	0.000
193	135	136	137	3	30.334	0.000	-30.334	-0.000	-0.000	0.000
194	136	137	139	3	30.334	0.000	-30.334	-0.000	-0.000	0.000
191	131	130	142	3	30.334	0.000	-30.334	-0.000	-0.000	0.000
200	144	143	183	3	30.334	0.000	-30.334	-0.000	-0.000	0.000
200	144	145	146	3	30.334	0.000	-30.334	-0.000	-0.000	0.000
197	140	139	137	3	30.334	0.000	-30.334	-0.000	-0.000	0.000
201	145	146	182	3	30.334	0.000	-30.334	-0.000	-0.000	0.000
210	170	171	172	3	30.334	0.000	-30.334	-0.000	-0.000	0.000
212	172	171	170	3	30.334	0.000	-30.334	-0.000	-0.000	0.000
209	169	170	171	3	30.334	0.000	-30.334	-0.000	-0.000	0.000
212	172	167	168	3	30.334	0.000	-30.334	-0.000	-0.000	0.000
192	132	131	130	3	30.334	0.000	-30.334	-0.000	-0.000	0.000
201	145	144	143	3	30.334	0.000	-30.334	-0.000	-0.000	0.000
212	172	167	166	3	30.334	0.000	-30.334	-0.000	-0.000	0.000
208	168	167	166	3	30.334	0.000	-30.334	-0.000	-0.000	0.000
201	145	144	200	3	30.334	0.000	-30.334	-0.000	-0.000	0.000
224	183	182	223	3	30.334	0.000	-30.334	-0.000	-0.000	0.000
210	170	169	209	3	30.334	0.000	-30.334	-0.000	-0.000	0.000
194	136	135	193	3	30.334	0.000	-30.334	-0.000	-0.000	0.000
199	142	141	198	3	30.334	0.000	-30.334	-0.000	-0.000	0.000
197	140	139	196	3	30.334	0.000	-30.334	-0.000	-0.000	0.000
209	169	168	208	3	30.334	0.000	-30.334	-0.000	-0.000	0.000
192	132	131	191	3	30.334	0.000	-30.334	-0.000	-0.000	0.000
211	171	170	210	3	30.334	0.000	-30.334	-0.000	-0.000	0.000
212	172	171	211	3	30.334	0.000	-30.334	-0.000	-0.000	0.000
224	183	143	126	3	30.334	0.000	-30.334	-0.000	-0.000	0.000
200	144	143	126	3	30.334	0.000	-30.334	-0.000	-0.000	0.000
194	136	137	138	3	0.0	0.0	0.0	-0.0	-0.0	0.0
196	139	137	138	3	0.0	0.0	0.0	-0.0	-0.0	0.0
191	131	130	129	3	30.334	0.000	-30.334	-0.000	-0.000	0.000
199	142	130	129	3	30.334	0.000	-30.334	-0.000	-0.000	0.000
205	152	151	150	3	58.576	0.000	-58.576	-0.000	-0.000	0.000
205	152	153	154	3	58.576	0.000	-58.576	-0.000	-0.000	0.000
207	154	153	152	3	58.576	0.000	-58.576	-0.000	-0.000	0.000
206	153	152	151	3	58.576	0.000	-58.576	-0.000	-0.000	0.000
203	148	149	150	3	58.576	0.000	-58.576	-0.000	-0.000	0.000
202	147	148	149	3	58.576	0.000	-58.576	-0.000	-0.000	0.000
203	148	147	146	3	58.576	0.000	-58.576	-0.000	-0.000	0.000
206	153	154	155	3	58.576	0.000	-58.576	-0.000	-0.000	0.000
205	152	151	177	3	58.576	0.000	-58.576	-0.000	-0.000	0.000
203	148	149	181	3	58.576	0.000	-58.576	-0.000	-0.000	0.000
203	148	147	202	3	58.576	0.000	-58.576	-0.000	-0.000	0.000
206	153	152	205	3	58.576	0.000	-58.576	-0.000	-0.000	0.000
207	154	153	206	3	58.576	0.000	-58.576	-0.000	-0.000	0.000
202	147	146	182	3	-0.778	-2.335	0.000	3.113	-0.000	0.000
202	147	146	145	3	-0.778	-2.335	0.000	3.113	-0.000	0.000
207	154	155	156	3	58.576	0.000	-58.576	-0.000	-0.000	0.000
207	154	155	166	3	58.576	0.000	-58.576	-0.000	-0.000	0.000
221	181	149	148	3	-0.778	-2.335	0.000	3.113	-0.000	0.000
221	181	149	150	3	-0.778	-2.335	0.000	3.113	-0.000	0.000
222	181	149	148	3	-0.778	-2.335	0.000	3.113	-0.000	0.000
214	177	151	152	3	-0.778	-2.335	0.000	3.113	-0.000	0.000
222	181	149	150	3	-0.778	-2.335	0.000	3.113	-0.000	0.000
213	177	151	150	3	-0.778	-2.335	0.000	3.113	-0.000	0.000
214	177	151	150	3	-0.778	-2.335	0.000	3.113	-0.000	0.000
213	177	151	152	3	-0.778	-2.335	0.000	3.113	-0.000	0.000
216	179	178	181	3	0.628	1.883	0.000	-2.510	-0.000	0.000
215	179	178	180	3	0.628	1.883	0.000	-2.510	-0.000	0.000
215	179	178	177	3	0.628	1.883	0.000	-2.510	-0.000	0.000
217	179	178	180	3	0.628	1.883	0.000	-2.510	-0.000	0.000
219	180	178	177	3	0.628	1.883	0.000	-2.510	-0.000	0.000
218	180	178	177	3	0.628	1.883	0.000	-2.510	-0.000	0.000
217	179	178	177	3	0.628	1.883	0.000	-2.510	-0.000	0.000
219	180	178	179	3	0.628	1.883	0.000	-2.510	-0.000	0.000
216	179	178	177	3	0.628	1.883	0.000	-2.510	-0.000	0.000
221	181	178	177	3	0.628	1.883	0.000	-2.510	-0.000	0.000
221	181	178	179	3	0.628	1.883	0.000	-2.510	-0.000	0.000
214	177	178	179	3	0.628	1.883	0.000	-2.510	-0.000	0.000
217	179	178	181	3	0.628	1.883	0.000	-2.510	-0.000	0.000
214	177	178	180	3	0.628	1.883	0.000	-2.510	-0.000	0.000
222	181	178	179	3	0.628	1.883	0.000	-2.510	-0.000	0.000
218	180	178	181	3	0.628	1.883	0.000	-2.510	-0.000	0.000
219	180	178	181	3	0.628	1.883	0.000	-2.510	-0.000	0.000
220	180	178	177	3	0.628	1.883	0.000	-2.510	-0.000	0.000
213	177	178	180	3	0.628	1.883	0.000	-2.510	-0.000	0.000
213	177	178	179	3	0.628	1.883	0.000	-2.510	-0.000	0.000
218	180	178	179	3	0.628	1.883	0.000	-2.510	-0.000	0.000
214	177	178	181	3	0.628	1.883	0.000	-2.510	-0.000	0.000
222	181	178	180	3	0.628	1.883	0.000	-2.510	-0.000	0.000
216	179	178	180	3	0.628	1.883	0.000	-2.510	-0.000	0.000
215	179	178	181	3	0.628	1.883	0.000	-2.510	-0.000	0.000
222	181	178	177	3	0.628	1.883	0.000	-2.510	-0.000	0.000
213	177	178	181	3	0.628	1.883	0.000	-2.510	-0.000	0.000
220	180	178	179	3	0.628	1.883	0.000	-2.510	-0.000	0.000
221	181	178	180	3	0.628	1.883	0.000	-2.510	-0.000	0.000
220	180	178	181	3	0.628	1.883	0.000	-2.510	-0.000	0.000
189	128	127	188	3	0.628	1.883	0.000	-2.510	-0.000	0.000
190	128	127	187	3	0.628	1.883	0.000	-2.510	-0.000	0.000
189	128	127	187	3	0.628	1.883	0.000	-2.510	-0.000	0.000
190	128	127	188	3	0.628	1.883	0.000	-2.510	-0.000	0.000
190	128	127	126	3	-4.096	5.088	2.966	-3.958	-0.000	0.000
189	128	127	126	3	-4.096	5.088	2.966	-3.958	-0.000	0.000
188	127	128	129	3	0.979	2.937	0.000	-3.916	-0.000	0.000
187	127	128	129	3	0.979	2.937	0.000	-3.916	-0.000	0.000
188	127	126	143	3	1.172	3.515	0.000	-4.686	-0.000	0.000
184	125	126	143	3	1.172	3.515	0.000	-4.686	-0.000	0.000
187	127	126	143	3	1.172	3.515	0.000	-4.686	-0.000	0.000
185	125	126	143	3	1.172	3.515	0.000	-4.686	-0.000	0.000
186	125	126	143	3	1.172	3.515	0.000	-4.686	-0.000	0.000
187	127	126	125	3	1.172	3.515	0.000	-4.686	-0.000	0.000
185	125	126	127	3	1.172	3.515	0.000	-4.686	-0.000	0.000
188	127	126	125	3	1.172	3.515	0.000	-4.686	-0.000	0.000
186	125	126	127	3	1.172	3.515	0.000	-4.686	-0.000	0.000
184	125	126	127	3	1.172	3.515	0.000	-4.686	-0.000	0.000
189	128	129	130	3	1.590	4.770	0.000	-6.360	-0.000	0.000
190	128	129	130	3	1.590	4.770	0.000	-6.360	-0.000	0.000
195	138	137	139	3	0.0	0.0	0.0	-0.0	-0.0	0.0
195	138	137	136	3	0.0	0.0	0.0	-0.0	-0.0	0.0
138	137	136	135	3	0.0	0.0	0.0	-0.0	-0.0	0.0
165	166	155	154	3	2.874	0.582	2.092	-5.548	-0.000	0.000
165	166	155	156	3	1.046	-1.046	0.000	-0.000	-0.000	0.000
129	128	127	126	3	16.736	-16.736	0.000	-0.000	-0.000	0.000
165	159	156	155	3	1.046	-1.046	0.000	-0.000	-0.000	0.000
165	159	156	157	3	9.079	0.000	-9.079	-0.000	-0.000	0.000
234	233	232	231	3	30.334	0.000	-30.334	-0.000	-0.000	0.000
233	241	242	230	3	30.334	0.000	-30.334	-0.000	-0.000	0.000
233	232	231	230	3	30.334	0.000	-30.334	-0.000	-0.000	0.000
254	253	252	251	3	21.738	2.408	-16.966	-7.180	-0.000	0.000
250	249	248	247	3	21.738	2.408	-16.966	-7.180	-0.000	0.000
251	250	249	248	3	21.738	2.408	-16.966	-7.180	-0.000	0.000
252	251	250	249	3	21.738	2.408	-16.966	-7.180	-0.000	0.000
253	252	251	250	3	21.738	2.408	-16.966	-7.180	-0.000	0.000
249	248	247	246	3	58.576	0.000	-58.576	-0.000	-0.000	0.000
248	247	246	245	3	16.027	-4.391	-14.029	2.393	-0.000	0.000
247	246	245	244	3	30.334	0.000	-30.334	-0.000	-0.000	0.000
256	255	254	253	3	58.576	0.000	-58.576	-0.000	-0.000	0.000
241	233	234	240	3	9.079	0.000	-9.079	-0.000	-0.000	0.000
240	234	233	232	3	9.079	0.000	-9.079	-0.000	-0.000	0.000
241	233	234	235	3	9.079	0.000	-9.079	-0.000	-0.000	0.000
235	234	233	232	3	9.079	0.000	-9.079	-0.000	-0.000	0.000
240	234	235	236	3	30.334	0.000	-30.334	-0.000	-0.000	0.000
241	233	232	231	3	30.334	0.000	-30.334	-0.000	-0.000	0.000
239	240	234	233	3	30.334	0.000	-30.334	-0.000	-0.000	0.000
242	241	233	234	3	30.334	0.000	-30.334	-0.000	-0.000	0.000
236	235	234	233	3	30.334	0.000	-30.334	-0.000	-0.000	0.000
239	240	234	235	3	30.334	0.000	-30.334	-0.000	-0.000	0.000
242	241	233	232	3	30.334	0.000	-30.334	-0.000	-0.000	0.000
282	246	247	248	3	16.027	-4.391	-14.029	2.393	-0.000	0.000
237	239	240	234	3	30.334	0.000	-30.334	-0.000	-0.000	0.000
237	236	235	234	3	30.334	0.000	-30.334	-0.000	-0.000	0.000
283	282	246	247	3	30.334	0.000	-30.334	-0.000	-0.000	0.000
272	267	268	269	3	30.334	0.000	-30.334	-0.000	-0.000	0.000
283	282	246	245	3	30.334	0.000	-30.334	-0.000	-0.000	0.000
242	230	231	232	3	30.334	0.000	-30.334	-0.000	-0.000	0.000
282	283	243	244	3	30.334	0.000	-30.334	-0.000	-0.000	0.000
272	271	270	269	3	30.334	0.000	-30.334	-0.000	-0.000	0.000
271	270	269	268	3	30.334	0.000	-30.334	-0.000	-0.000	0.000
270	269	268	267	3	30.334	0.000	-30.334	-0.000	-0.000	0.000
246	245	244	243	3	30.334	0.000	-30.334	-0.000	-0.000	0.000
246	282	283	243	3	30.334	0.000	-30.334	-0.000	-0.000	0.000
283	243	244	245	3	30.334	0.000	-30.334	-0.000	-0.000	0.000
282	246	245	244	3	30.334	0.000	-30.334	-0.000	-0.000	0.000
271	272	267	268	3	30.334	0.000	-30.334	-0.000	-0.000	0.000
240	239	237	236	3	30.334	0.000	-30.334	-0.000	-0.000	0.000
241	242	230	231	3	30.334	0.000	-30.334	-0.000	-0.000	0.000
270	271	272	267	3	30.334	0.000	-30.334	-0.000	-0.000	0.000
239	237	236	235	3	30.334	0.000	-30.334	-0.000	-0.000	0.000
271	272	267	266	3	30.334	0.000	-30.334	-0.000	-0.000	0.000
269	268	267	266	3	30.334	0.000	-30.334	-0.000	-0.000	0.000
282	283	243	226	3	30.334	0.000	-30.334	-0.000	-0.000	0.000
245	244	243	226	3	30.334	0.000	-30.334	-0.000	-0.000	0.000
240	239	237	238	3	0.0	0.0	0.0	-0.0	-0.0	0.0
232	231	230	229	3	30.334	0.000	-30.334	-0.000	-0.000	0.000
241	242	230	229	3	30.334	0.000	-30.334	-0.000	-0.000	0.000
272	267	266	255	3	0.000	0.000	0.000	-0.000	-0.000	0.000
268	267	266	255	3	0.000	0.000	0.000	-0.000	-0.000	0.000
272	267	266	265	3	0.000	0.000	0.000	-0.000	-0.000	0.000
268	267	266	265	3	0.000	0.000	0.000	-0.000	-0.000	0.000
283	243	226	227	3	5.184	35.932	-14.355	-26.761	-0.000	0.000
244	243	226	227	3	5.184	35.932	-14.355	-26.761	-0.000	0.000
244	243	226	225	3	5.184	35.932	-14.355	-26.761	-0.000	0.000
283	243	226	225	3	5.184	35.932	-14.355	-26.761	-0.000	0.000
231	230	229	228	3	12.552	0.000	-12.552	-0.000	-0.000	0.000
242	230	229	228	3	12.552	0.000	-12.552	-0.000	-0.000	0.000
267	266	255	254	3	6.322	-2.485	0.707	-4.544	-0.000	0.000
267	266	255	256	3	0.527	-6.397	-1.695	7.565	-0.000	0.000
267	266	265	259	3	1.715	2.845	1.046	-5.607	-0.000	0.000
243	226	227	228	3	1.789	3.492	0.536	-5.816	-0.000	0.000
230	229	228	227	3	1.715	2.845	1.046	-5.607	-0.000	0.000
273	266	267	268	3	0.000	0.000	0.000	-0.000	-0.000	0.000
273	266	267	272	3	0.000	0.000	0.000	-0.000	-0.000	0.000
273	266	255	254	3	6.322	-2.485	0.707	-4.544	-0.000	0.000
273	266	255	256	3	0.527	-6.397	-1.695	7.565	-0.000	0.000
273	266	265	259	3	1.715	2.845	1.046	-5.607	-0.000	0.000
255	254	253	252	3	21.738	2.408	-16.966	-7.180	-0.000	0.000
260	259	256	255	3	21.738	2.408	-16.966	-7.180	-0.000	0.000
260	259	256	257	3	-0.778	-2.335	0.000	3.113	-0.000	0.000
281	249	248	247	3	58.576	0.000	-58.576	-0.000	-0.000	0.000
277	251	250	249	3	58.576	0.000	-58.576	-0.000	-0.000	0.000
281	249	250	251	3	58.576	0.000	-58.576	-0.000	-0.000	0.000
277	251	252	253	3	58.576	0.000	-58.576	-0.000	-0.000	0.000
266	255	254	253	3	-0.778	-2.335	0.000	3.113	-0.000	0.000
266	255	256	259	3	58.576	0.000	-58.576	-0.000	-0.000	0.000
266	255	256	257	3	58.576	0.000	-58.576	-0.000	-0.000	0.000
278	281	249	248	3	0.527	-6.397	-1.695	7.565	-0.000	0.000
278	277	251	252	3	0.527	-6.397	-1.695	7.565	-0.000	0.000
278	277	251	250	3	0.527	-6.397	-1.695	7.565	-0.000	0.000
278	281	249	250	3	0.527	-6.397	-1.695	7.565	-0.000	0.000
281	278	277	251	3	2.301	-1.464	0.837	-1.674	-0.000	0.000
280	278	281	249	3	2.301	-1.464	0.837	-1.674	-0.000	0.000
277	278	281	249	3	2.301	-1.464	0.837	-1.674	-0.000	0.000
279	278	281	249	3	2.301	-1.464	0.837	-1.674	-0.000	0.000
280	278	277	251	3	2.301	-1.464	0.837	-1.674	-0.000	0.000
279	278	277	251	3	2.301	-1.464	0.837	-1.674	-0.000	0.000
228	227	226	225	3	1.789	3.492	0.536	-5.816	-0.000	0.000
266	265	259	256	3	30.334	0.000	-30.334	-0.000	-0.000	0.000
266	265	259	260	3	30.334	0.000	-30.334	-0.000	-0.000	0.000
259	256	255	254	3	58.576	0.000	-58.576	-0.000	-0.000	0.000
259	265	266	255	3	1.715	2.845	1.046	-5.607	-0.000	0.000
257	256	255	254	3	58.576	0.000	-58.576	-0.000	-0.000	0.000
261	260	259	256	3	58.576	0.000	-58.576	-0.000	-0.000	0.000
263	260	259	256	3	58.576	0.000	-58.576	-0.000	-0.000	0.000
274	273	266	267	3	0.000	0.000	0.000	-0.000	-0.000	0.000
275	273	266	267	3	0.000	0.000	0.000	-0.000	-0.000	0.000
276	273	266	267	3	0.000	0.000	0.000	-0.000	-0.000	0.000
275	273	266	255	3	0.000	0.000	0.000	-0.000	-0.000	0.000
274	273	266	255	3	0.000	0.000	0.000	-0.000	-0.000	0.000
276	273	266	255	3	0.000	0.000	0.000	-0.000	-0.000	0.000
275	273	266	265	3	1.130	3.389	0.000	-4.519	-0.000	0.000
276	273	266	265	3	1.130	3.389	0.000	-4.519	-0.000	0.000
274	273	266	265	3	1.130	3.389	0.000	-4.519	-0.000	0.000
304	250	249	248	3	58.576	0.000	-58.576	-0.000	-0.000	0.000
304	250	251	252	3	58.576	0.000	-58.576	-0.000	-0.000	0.000
304	250	251	277	3	58.576	0.000	-58.576	-0.000	-0.000	0.000
304	250	249	281	3	58.576	0.000	-58.576	-0.000	-0.000	0.000
293	235	234	233	3	30.334	0.000	-30.334	-0.000	-0.000	0.000
292	232	233	234	3	30.334	0.000	-30.334	-0.000	-0.000	0.000
298	241	233	234	3	30.334	0.000	-30.334	-0.000	-0.000	0.000
297	240	234	233	3	30.334	0.000	-30.334	-0.000	-0.000	0.000
297	240	234	235	3	30.334	0.000	-30.334	-0.000	-0.000	0.000
293	235	234	240	3	30.334	0.000	-30.334	-0.000	-0.000	0.000
292	232	233	241	3	30.334	0.000	-30.334	-0.000	-0.000	0.000
298	241	233	232	3	30.334	0.000	-30.334	-0.000	-0.000	0.000
291	231	232	233	3	30.334	0.000	-30.334	-0.000	-0.000	0.000
299	242	241	233	3	30.334	0.000	-30.334	-0.000	-0.000	0.000
294	236	235	234	3	30.334	0.000	-30.334	-0.000	-0.000	0.000
296	239	240	234	3	30.334	0.000	-30.334	-0.000	-0.000	0.000
301	245	246	247	3	30.334	0.000	-30.334	-0.000	-0.000	0.000
323	282	246	247	3	30.334	0.000	-30.334	-0.000	-0.000	0.000
308	268	269	270	3	30.334	0.000	-30.334	-0.000	-0.000	0.000
296	239	237	236	3	30.334	0.000	-30.334	-0.000	-0.000	0.000
311	271	270	269	3	30.334	0.000	-30.334	-0.000	-0.000	0.000
323	282	283	243	3	30.334	0.000	-30.334	-0.000	-0.000	0.000
309	269	268	267	3	30.334	0.000	-30.334	-0.000	-0.000	0.000
324	283	282	246	3	30.334	0.000	-30.334	-0.000	-0.000	0.000
310	270	269	268	3	30.334	0.000	-30.334	-0.000	-0.000	0.000
299	242	230	231	3	30.334	0.000	-30.334	-0.000	-0.000	0.000
298	241	242	230	3	30.334	0.000	-30.334	-0.000	-0.000	0.000
323	282	246	245	3	30.334	0.000	-30.334	-0.000	-0.000	0.000
324	283	243	244	3	30.334	0.000	-30.334	-0.000	-0.000	0.000
311	271	272	267	3	30.334	0.000	-30.334	-0.000	-0.000	0.000
308	268	267	272	3	30.334	0.000	-30.334	-0.000	-0.000	0.000
293	235	236	237	3	30.334	0.000	-30.334	-0.000	-0.000	0.000
294	236	237	239	3	30.334	0.000	-30.334	-0.000	-0.000	0.000
291	231	230	242	3	30.334	0.000	-30.334	-0.000	-0.000	0.000
300	244	243	283	3	30.334	0.000	-30.334	-0.000	-0.000	0.000
300	244	245	246	3	30.334	0.000	-30.334	-0.000	-0.000	0.000
297	240	239	237	3	30.334	0.000	-30.334	-0.000	-0.000	0.000
301	245	246	282	3	30.334	0.000	-30.334	-0.000	-0.000	0.000
310	270	271	272	3	30.334	0.000	-30.334	-0.000	-0.000	0.000
312	272	271	270	3	30.334	0.000	-30.334	-0.000	-0.000	0.000
309	269	270	271	3	30.334	0.000	-30.334	-0.000	-0.000	0.000
312	272	267	268	3	30.334	0.000	-30.334	-0.000	-0.000	0.000
292	232	231	230	3	30.334	0.000	-30.334	-0.000	-0.000	0.000
301	245	244	243	3	30.334	0.000	-30.334	-0.000	-0.000	0.000
312	272	267	266	3	30.334	0.000	-30.334	-0.000	-0.000	0.000
308	268	267	266	3	30.334	0.000	-30.334	-0.000	-0.000	0.000
301	245	244	300	3	30.334	0.000	-30.334	-0.000	-0.000	0.000
324	283	282	323	3	30.334	0.000	-30.334	-0.000	-0.000	0.000
310	270	269	309	3	30.334	0.000	-30.334	-0.000	-0.000	0.000
294	236	235	293	3	30.334	0.000	-30.334	-0.000	-0.000	0.000
299	242	241	298	3	30.334	0.000	-30.334	-0.000	-0.000	0.000
297	240	239	296	3	30.334	0.000	-30.334	-0.000	-0.000	0.000
309	269	268	308	3	30.334	0.000	-30.334	-0.000	-0.000	0.000
292	232	231	291	3	30.334	0.000	-30.334	-0.000	-0.000	0.000
311	271	270	310	3	30.334	0.000	-30.334	-0.000	-0.000	0.000
312	272	271	311	3	30.334	0.000	-30.334	-0.000	-0.000	0.000
324	283	243	226	3	30.334	0.000	-30.334	-0.000	-0.000	0.000
300	244	243	226	3	30.334	0.000	-30.334	-0.000	-0.000	0.000
294	236	237	238	3	0.0	0.0	0.0	-0.0	-0.0	0.0
296	239	237	238	3	0.0	0.0	0.0	-0.0	-0.0	0.0
291	231	230	229	3	30.334	0.000	-30.334	-0.000	-0.000	0.000
299	242	230	229	3	30.334	0.000	-30.334	-0.000	-0.000	0.000
305	252	251	250	3	58.576	0.000	-58.576	-0.000	-0.000	0.000
305	252	253	254	3	58.576	0.000	-58.576	-0.000	-0.000	0.000
307	254	253	252	3	58.576	0.000	-58.576	-0.000	-0.000	0.000
306	253	252	251	3	58.576	0.000	-58.576	-0.000	-0.000	0.000
303	248	249	250	3	58.576	0.000	-58.576	-0.000	-0.000	0.000
302	247	248	249	3	58.576	0.000	-58.576	-0.000	-0.000	0.000
303	248	247	246	3	58.576	0.000	-58.576	-0.000	-0.000	0.000
306	253	254	255	3	58.576	0.000	-58.576	-0.000	-0.000	0.000
305	252	251	277	3	58.576	0.000	-58.576	-0.000	-0.000	0.000
303	248	249	281	3	58.576	0.000	-58.576	-0.000	-0.000	0.000
303	248	247	302	3	58.576	0.000	-58.576	-0.000	-0.000	0.000
306	253	252	305	3	58.576	0.000	-58.576	-0.000	-0.000	0.000
307	254	253	306	3	58.576	0.000	-58.576	-0.000	-0.000	0.000
302	247	246	282	3	-0.778	-2.335	0.000	3.113	-0.000	0.000
302	247	246	245	3	-0.778	-2.335	0.000	3.113	-0.000	0.000
307	254	255	256	3	58.576	0.000	-58.576	-0.000	-0.000	0.000
307	254	255	266	3	58.576	0.000	-58.576	-0.000	-0.000	0.000
321	281	249	248	3	-0.778	-2.335	0.000	3.113	-0.000	0.000
321	281	249	250	3	-0.778	-2.335	0.000	3.113	-0.000	0.000
322	281	249	248	3	-0.778	-2.335	0.000	3.113	-0.000	0.000
314	277	251	252	3	-0.778	-2.335	0.000	3.113	-0.000	0.000
322	281	249	250	3	-0.778	-2.335	0.000	3.113	-0.000	0.000
313	277	251	250	3	-0.778	-2.335	0.000	3.113	-0.000	0.000
314	277	251	250	3	-0.778	-2.335	0.000	3.113	-0.000	0.000
313	277	251	252	3	-0.778	-2.335	0.000	3.113	-0.000	0.000
316	279	278	281	3	0.628	1.883	0.000	-2.510	-0.000	0.000
315	279	278	280	3	0.628	1.883	0.000	-2.510	-0.000	0.000
315	279	278	277	3	0.628	1.883	0.000	-2.510	-0.000	0.000
317	279	278	280	3	0.628	1.883	0.000	-2.510	-0.000	0.000
319	280	278	277	3	0.628	1.883	0.000	-2.510	-0.000	0.000
318	280	278	277	3	0.628	1.883	0.000	-2.510	-0.000	0.000
317	279	278	277	3	0.628	1.883	0.000	-2.510	-0.000	0.000
319	280	278	279	3	0.628	1.883	0.000	-2.510	-0.000	0.000
316	279	278	277	3	0.628	1.883	0.000	-2.510	-0.000	0.000
321	281	278	277	3	0.628	1.883	0.000	-2.510	-0.000	0.000
321	281	278	279	3	0.628	1.883	0.000	-2.510	-0.000	0.000
314	277	278	279	3	0.628	1.883	0.000	-2.510	-0.000	0.000
317	279	278	281	3	0.628	1.883	0.000	-2.510	-0.000	0.000
314	277	278	280	3	0.628	1.883	0.000	-2.510	-0.000	0.000
322	281	278	279	3	0.628	1.883	0.000	-2.510	-0.000	0.000
318	280	278	281	3	0.628	1.883	0.000	-2.510	-0.000	0.000
319	280	278	281	3	0.628	1.883	0.000	-2.510	-0.000	0.000
320	280	278	277	3	0.628	1.883	0.000	-2.510	-0.000	0.000
313	277	278	280	3	0.628	1.883	0.000	-2.510	-0.000	0.000
313	277	278	279	3	0.628	1.883	0.000	-2.510	-0.000	0.000
318	280	278	279	3	0.628	1.883	0.000	-2.510	-0.000	0.000
314	277	278	281	3	0.628	1.883	0.000	-2.510	-0.000	0.000
322	281	278	280	3	0.628	1.883	0.000	-2.510	-0.000	0.000
316	279	278	280	3	0.628	1.883	0.000	-2.510	-0.000	0.000
315	279	278	281	3	0.628	1.883	0.000	-2.510	-0.000	0.000
322	281	278	277	3	0.628	1.883	0.000	-2.510	-0.000	0.000
313	277	278	281	3	0.628	1.883	0.000	-2.510	-0.000	0.000
320	280	278	279	3	0.628	1.883	0.000	-2.510	-0.000	0.000
321	281	278	280	3	0.628	1.883	0.000	-2.510	-0.000	0.000
320	280	278	281	3	0.628	1.883	0.000	-2.510	-0.000	0.000
289	228	227	288	3	0.628	1.883	0.000	-2.510	-0.000	0.000
290	228	227	287	3	0.628	1.883	0.000	-2.510	-0.000	0.000
289	228	227	287	3	0.628	1.883	0.000	-2.510	-0.000	0.000
290	228	227	288	3	0.628	1.883	0.000	-2.510	-0.000	0.000
290	228	227	226	3	-4.096	5.088	2.966	-3.958	-0.000	0.000
289	228	227	226	3	-4.096	5.088	2.966	-3.958	-0.000	0.000
288	227	228	229	3	0.979	2.937	0.000	-3.916	-0.000	0.000
287	227	228	229	3	0.979	2.937	0.000	-3.916	-0.000	0.000
288	227	226	243	3	1.172	3.515	0.000	-4.686	-0.000	0.000
284	225	226	243	3	1.172	3.515	0.000	-4.686	-0.000	0.000
287	227	226	243	3	1.172	3.515	0.000	-4.686	-0.000	0.000
285	225	226	243	3	1.172	3.515	0.000	-4.686	-0.000	0.000
286	225	226	243	3	1.172	3.515	0.000	-4.686	-0.000	0.000
287	227	226	225	3	1.172	3.515	0.000	-4.686	-0.000	0.000
285	225	226	227	3	1.172	3.515	0.000	-4.686	-0.000	0.000
288	227	226	225	3	1.172	3.515	0.000	-4.686	-0.000	0.000
286	225	226	227	3	1.172	3.515	0.000	-4.686	-0.000	0.000
284	225	226	227	3	1.172	3.515	0.000	-4.686	-0.000	0.000
289	228	229	230	3	1.590	4.770	0.000	-6.360	-0.000	0.000
290	228	229	230	3	1.590	4.770	0.000	-6.360	-0.000	0.000
295	238	237	239	3	0.0	0.0	0.0	-0.0	-0.0	0.0
295	238	237	236	3	0.0	0.0	0.0	-0.0	-0.0	0.0
238	237	236	235	3	0.0	0.0	0.0	-0.0	-0.0	0.0
265	266	255	254	3	2.874	0.582	2.092	-5.548	-0.000	0.000
265	266	255	256	3	1.046	-1.046	0.000	-0.000	-0.000	0.000
229	228	227	226	3	16.736	-16.736	0.000	-0.000	-0.000	0.000
265	259	256	255	3	1.046	-1.046	0.000	-0.000	-0.000	0.000
265	259	256	257	3	9.079	0.000	-9.079	-0.000	-0.000	0.000
334	333	332	331	3	30.334	0.000	-30.334	-0.000	-0.000	0.000
333	341	342	330	3	30.334	0.000	-30.334	-0.000	-0.000	0.000
333	332	331	330	3	30.334	0.000	-30.334	-0.000	-0.000	0.000
354	353	352	351	3	21.738	2.408	-16.966	-7.180	-0.000	0.000
350	349	348	347	3	21.738	2.408	-16.966	-7.180	-0.000	0.000
351	350	349	348	3	21.738	2.408	-16.966	-7.180	-0.000	0.000
352	351	350	349	3	21.738	2.408	-16.966	-7.180	-0.000	0.000
353	352	351	350	3	21.738	2.408	-16.966	-7.180	-0.000	0.000
349	348	347	346	3	58.576	0.000	-58.576	-0.000	-0.000	0.000
348	347	346	345	3	16.027	-4.391	-14.029	2.393	-0.000	0.000
347	346	345	344	3	30.334	0.000	-30.334	-0.000	-0.000	0.000
356	355	354	353	3	58.576	0.000	-58.576	-0.000	-0.000	0.000
341	333	334	340	3	9.079	0.000	-9.079	-0.000	-0.000	0.000
340	334	333	332	3	9.079	0.000	-9.079	-0.000	-0.000	0.000
341	333	334	335	3	9.079	0.000	-9.079	-0.000	-0.000	0.000
335	334	333	332	3	9.079	0.000	-9.079	-0.000	-0.000	0.000
340	334	335	336	3	30.334	0.000	-30.334	-0.000	-0.000	0.000
341	333	332	331	3	30.334	0.000	-30.334	-0.000	-0.000	0.000
339	340	334	333	3	30.334	0.000	-30.334	-0.000	-0.000	0.000
342	341	333	334	3	30.334	0.000	-30.334	-0.000	-0.000	0.000
336	335	334	333	3	30.334	0.000	-30.334	-0.000	-0.000	0.000
339	340	334	335	3	30.334	0.000	-30.334	-0.000	-0.000	0.000
342	341	333	332	3	30.334	0.000	-30.334	-0.000	-0.000	0.000
382	346	347	348	3	16.027	-4.391	-14.029	2.393	-0.000	0.000
337	339	340	334	3	30.334	0.000	-30.334	-0.000	-0.000	0.000
337	336	335	334	3	30.334	0.000	-30.334	-0.000	-0.000	0.000
383	382	346	347	3	30.334	0.000	-30.334	-0.000	-0.000	0.000
372	367	368	369	3	30.334	0.000	-30.334	-0.000	-0.000	0.000
383	382	346	345	3	30.334	0.000	-30.334	-0.000	-0.000	0.000
342	330	331	332	3	30.334	0.000	-30.334	-0.000	-0.000	0.000
382	383	343	344	3	30.334	0.000	-30.334	-0.000	-0.000	0.000
372	371	370	369	3	30.334	0.000	-30.334	-0.000	-0.000	0.000
371	370	369	368	3	30.334	0.000	-30.334	-0.000	-0.000	0.000
370	369	368	367	3	30.334	0.000	-30.334	-0.000	-0.000	0.000
346	345	344	343	3	30.334	0.000	-30.334	-0.000	-0.000	0.000
346	382	383	343	3	30.334	0.000	-30.334	-0.000	-0.000	0.000
383	343	344	345	3	30.334	0.000	-30.334	-0.000	-0.000	0.000
382	346	345	344	3	30.334	0.000	-30.334	-0.000	-0.000	0.000
371	372	367	368	3	30.334	0.000	-30.334	-0.000	-0.000	0.000
340	339	337	336	3	30.334	0.000	-30.334	-0.000	-0.000	0.000
341	342	330	331	3	30.334	0.000	-30.334	-0.000	-0.000	0.000
370	371	372	367	3	30.334	0.000	-30.334	-0.000	-0.000	0.000
339	337	336	335	3	30.334	0.000	-30.334	-0.000	-0.000	0.000
371	372	367	366	3	30.334	0.000	-30.334	-0.000	-0.000	0.000
369	368	367	366	3	30.334	0.000	-30.334	-0.000	-0.000	0.000
382	383	343	326	3	30.334	0.000	-30.334	-0.000	-0.000	0.000
345	344	343	326	3	30.334	0.000	-30.334	-0.000	-0.000	0.000
340	339	337	338	3	0.0	0.0	0.0	-0.0	-0.0	0.0
332	331	330	329	3	30.334	0.000	-30.334	-0.000	-0.000	0.000
341	342	330	329	3	30.334	0.000	-30.334	-0.000	-0.000	0.000
372	367	366	355	3	0.000	0.000	0.000	-0.000	-0.000	0.000
368	367	366	355	3	0.000	0.000	0.000	-0.000	-0.000	0.000
372	367	366	365	3	0.000	0.000	0.000	-0.000	-0.000	0.000
368	367	366	365	3	0.000	0.000	0.000	-0.000	-0.000	0.000
383	343	326	327	3	5.184	35.932	-14.355	-26.761	-0.000	0.000
344	343	326	327	3	5.184	35.932	-14.355	-26.761	-0.000	0.000
344	343	326	325	3	5.184	35.932	-14.355	-26.761	-0.000	0.000
383	343	326	325	3	5.184	35.932	-14.355	-26.761	-0.000	0.000
331	330	329	328	3	12.552	0.000	-12.552	-0.000	-0.000	0.000
342	330	329	328	3	12.552	0.000	-12.552	-0.000	-0.000	0.000
367	366	355	354	3	6.322	-2.485	0.707	-4.544	-0.000	0.000
367	366	355	356	3	0.527	-6.397	-1.695	7.565	-0.000	0.000
367	366	365	359	3	1.715	2.845	1.046	-5.607	-0.000	0.000
343	326	327	328	3	1.789	3.492	0.536	-5.816	-0.000	0.000
330	329	328	327	3	1.715	2.845	1.046	-5.607	-0.000	0.000
373	366	367	368	3	0.000	0.000	0.000	-0.000	-0.000	0.000
373	366	367	372	3	0.000	0.000	0.000	-0.000	-0.000	0.000
373	366	355	354	3	6.322	-2.485	0.707	-4.544	-0.000	0.000
373	366	355	356	3	0.527	-6.397	-1.695	7.565	-0.000	0.000
373	366	365	359	3	1.715	2.845	1.046	-5.607	-0.000	0.000
355	354	353	352	3	21.738	2.408	-16.966	-7.180	-0.000	0.000
360	359	356	355	3	21.738	2.408	-16.966	-7.180	-0.000	0.000
360	359	356	357	3	-0.778	-2.335	0.000	3.113	-0.000	0.000
381	349	348	347	3	58.576	0.000	-58.576	-0.000	-0.000	0.000
377	351	350	349	3	58.576	0.000	-58.576	-0.000	-0.000	0.000
381	349	350	351	3	58.576	0.000	-58.576	-0.000	-0.000	0.000
377	351	352	353	3	58.576	0.000	-58.576	-0.000	-0.000	0.000
366	355	354	353	3	-0.778	-2.335	0.000	3.113	-0.000	0.000
366	355	356	359	3	58.576	0.000	-58.576	-0.000	-0.000	0.000
366	355	356	357	3	58.576	0.000	-58.576	-0.000	-0.000	0.000
378	381	349	348	3	0.527	-6.397	-1.695	7.565	-0.000	0.000
378	377	351	352	3	0.527	-6.397	-1.695	7.565	-0.000	0.000
378	377	351	350	3	0.527	-6.397	-1.695	7.565	-0.000	0.000
378	381	349	350	3	0.527	-6.397	-1.695	7.565	-0.000	0.000
381	378	377	351	3	2.301	-1.464	0.837	-1.674	-0.000	0.000
380	378	381	349	3	2.301	-1.464	0.837	-1.674	-0.000	0.000
377	378	381	349	3	2.301	-1.464	0.837	-1.674	-0.000	0.000
379	378	381	349	3	2.301	-1.464	0.837	-1.674	-0.000	0.000
380	378	377	351	3	2.301	-1.464	0.837	-1.674	-0.000	0.000
379	378	377	351	3	2.301	-1.464	0.837	-1.674	-0.000	0.000
328	327	326	325	3	1.789	3.492	0.536	-5.816	-0.000	0.000
366	365	359	356	3	30.334	0.000	-30.334	-0.000	-0.000	0.000
366	365	359	360	3	30.334	0.000	-30.334	-0.000	-0.000	0.000
359	356	355	354	3	58.576	0.000	-58.576	-0.000	-0.000	0.000
359	365	366	355	3	1.715	2.845	1.046	-5.607	-0.000	0.000
357	356	355	354	3	58.576	0.000	-58.576	-0.000	-0.000	0.000
361	360	359	356	3	58.576	0.000	-58.576	-0.000	-0.000	0.000
363	360	359	356	3	58.576	0.000	-58.576	-0.000	-0.000	0.000
374	373	366	367	3	0.000	0.000	0.000	-0.000	-0.000	0.000
375	373	366	367	3	0.000	0.000	0.000	-0.000	-0.000	0.000
376	373	366	367	3	0.000	0.000	0.000	-0.000	-0.000	0.000
375	373	366	355	3	0.000	0.000	0.000	-0.000	-0.000	0.000
374	373	366	355	3	0.000	0.000	0.000	-0.000	-0.000	0.000
376	373	366	355	3	0.000	0.000	0.000	-0.000	-0.000	0.000
375	373	366	365	3	1.130	3.389	0.000	-4.519	-0.000	0.000
376	373	366	365	3	1.130	3.389	0.000	-4.519	-0.000	0.000
374	373	366	365	3	1.130	3.389	0.000	-4.519	-0.000	0.000
404	350	349	348	3	58.576	0.000	-58.576	-0.000	-0.000	0.000
404	350	351	352	3	58.576	0.000	-58.576	-0.000	-0.000	0.000
404	350	351	377	3	58.576	0.000	-58.576	-0.000	-0.000	0.000
404	350	349	381	3	58.576	0.000	-58.576	-0.000	-0.000	0.000
393	335	334	333	3	30.334	0.000	-30.334	-0.000	-0.000	0.000
392	332	333	334	3	30.334	0.000	-30.334	-0.000	-0.000	0.000
398	341	333	334	3	30.334	0.000	-30.334	-0.000	-0.000	0.000
397	340	334	333	3	30.334	0.000	-30.334	-0.000	-0.000	0.000
397	340	334	335	3	30.334	0.000	-30.334	-0.000	-0.000	0.000
393	335	334	340	3	30.334	0.000	-30.334	-0.000	-0.000	0.000
392	332	333	341	3	30.334	0.000	-30.334	-0.000	-0.000	0.000
398	341	333	332	3	30.334	0.000	-30.334	-0.000	-0.000	0.000
391	331	332	333	3	30.334	0.000	-30.334	-0.000	-0.000	0.000
399	342	341	333	3	30.334	0.000	-30.334	-0.000	-0.000	0.000
394	336	335	334	3	30.334	0.000	-30.334	-0.000	-0.000	0.000
396	339	340	334	3	30.334	0.000	-30.334	-0.000	-0.000	0.000
401	345	346	347	3	30.334	0.000	-30.334	-0.000	-0.000	0.000
423	382	346	347	3	30.334	0.000	-30.334	-0.000	-0.000	0.000
408	368	369	370	3	30.334	0.000	-30.334	-0.000	-0.000	0.000
396	339	337	336	3	30.334	0.000	-30.334	-0.000	-0.000	0.000
411	371	370	369	3	30.334	0.000	-30.334	-0.000	-0.000	0.000
423	382	383	343	3	30.334	0.000	-30.334	-0.000	-0.000	0.000
409	369	368	367	3	30.334	0.000	-30.334	-0.000	-0.000	0.000
424	383	382	346	3	30.334	0.000	-30.334	-0.000	-0.000	0.000
410	370	369	368	3	30.334	0.000	-30.334	-0.000	-0.000	0.000
399	342	330	331	3	30.334	0.000	-30.334	-0.000	-0.000	0.000
398	341	342	330	3	30.334	0.000	-30.334	-0.000	-0.000	0.000
423	382	346	345	3	30.334	0.000	-30.334	-0.000	-0.000	0.000
424	383	343	344	3	30.334	0.000	-30.334	-0.000	-0.000	0.000
411	371	372	367	3	30.334	0.000	-30.334	-0.000	-0.000	0.000
408	368	367	372	3	30.334	0.000	-30.334	-0.000	-0.000	0.000
393	335	336	337	3	30.334	0.000	-30.334	-0.000	-0.000	0.000
394	336	337	339	3	30.334	0.000	-30.334	-0.000	-0.000	0.000
391	331	330	342	3	30.334	0.000	-30.334	-0.000	-0.000	0.000
400	344	343	383	3	30.334	0.000	-30.334	-0.000	-0.000	0.000
400	344	345	346	3	30.334	0.000	-30.334	-0.000	-0.000	0.000
397	340	339	337	3	30.334	0.000	-30.334	-0.000	-0.000	0.000
401	345	346	382	3	30.334	0.000	-30.334	-0.000	-0.000	0.000
410	370	371	372	3	30.334	0.000	-30.334	-0.000	-0.000	0.000
412	372	371	370	3	30.334	0.000	-30.334	-0.000	-0.000	0.000
409	369	370	371	3	30.334	0.000	-30.334	-0.000	-0.000	0.000
412	372	367	368	3	30.334	0.000	-30.334	-0.000	-0.000	0.000
392	332	331	330	3	30.334	0.000	-30.334	-0.000	-0.000	0.000
401	345	344	343	3	30.334	0.000	-30.334	-0.000	-0.000	0.000
412	372	367	366	3	30.334	0.000	-30.334	-0.000	-0.000	0.000
408	368	367	366	3	30.334	0.000	-30.334	-0.000	-0.000	0.000
401	345	344	400	3	30.334	0.000	-30.334	-0.000	-0.000	0.000
424	383	382	423	3	30.334	0.000	-30.334	-0.000	-0.000	0.000
410	370	369	409	3	30.334	0.000	-30.334	-0.000	-0.000	0.000
394	336	335	393	3	30.334	0.000	-30.334	-0.000	-0.000	0.000
399	342	341	398	3	30.334	0.000	-30.334	-0.000	-0.000	0.000
397	340	339	396	3	30.334	0.000	-30.334	-0.000	-0.000	0.000
409	369	368	408	3	30.334	0.000	-30.334	-0.000	-0.000	0.000
392	332	331	391	3	30.334	0.000	-30.334	-0.000	-0.000	0.000
411	371	370	410	3	30.334	0.000	-30.334	-0.000	-0.000	0.000
412	372	371	411	3	30.334	0.000	-30.334	-0.000	-0.000	0.000
424	383	343	326	3	30.334	0.000	-30.334	-0.000	-0.000	0.000
400	344	343	326	3	30.334	0.000	-30.334	-0.000	-0.000	0.000
394	336	337	338	3	0.0	0.0	0.0	-0.0	-0.0	0.0
396	339	337	338	3	0.0	0.0	0.0	-0.0	-0.0	0.0
391	331	330	329	3	30.334	0.000	-30.334	-0.000	-0.000	0.000
399	342	330	329	3	30.334	0.000	-30.334	-0.000	-0.000	0.000
405	352	351	350	3	58.576	0.000	-58.576	-0.000	-0.000	0.000
405	352	353	354	3	58.576	0.000	-58.576	-0.000	-0.000	0.000
407	354	353	352	3	58.576	0.000	-58.576	-0.000	-0.000	0.000
406	353	352	351	3	58.576	0.000	-58.576	-0.000	-0.000	0.000
403	348	349	350	3	58.576	0.000	-58.576	-0.000	-0.000	0.000
402	347	348	349	3	58.576	0.000	-58.576	-0.000	-0.000	0.000
403	348	347	346	3	58.576	0.000	-58.576	-0.000	-0.000	0.000
406	353	354	355	3	58.576	0.000	-58.576	-0.000	-0.000	0.000
405	352	351	377	3	58.576	0.000	-58.576	-0.000	-0.000	0.000
403	348	349	381	3	58.576	0.000	-58.576	-0.000	-0.000	0.000
403	348	347	402	3	58.576	0.000	-58.576	-0.000	-0.000	0.000
406	353	352	405	3	58.576	0.000	-58.576	-0.000	-0.000	0.000
407	354	353	406	3	58.576	0.000	-58.576	-0.000	-0.000	0.000
402	347	346	382	3	-0.778	-2.335	0.000	3.113	-0.000	0.000
402	347	346	345	3	-0.778	-2.335	0.000	3.113	-0.000	0.000
407	354	355	356	3	58.576	0.000	-58.576	-0.000	-0.000	0.000
407	354	355	366	3	58.576	0.000	-58.576	-0.000	-0.000	0.000
421	381	349	348	3	-0.778	-2.335	0.000	3.113	-0.000	0.000
421	381	349	350	3	-0.778	-2.335	0.000	3.113	-0.000	0.000
422	381	349	348	3	-0.778	-2.335	0.000	3.113	-0.000	0.000
414	377	351	352	3	-0.778	-2.335	0.000	3.113	-0.000	0.000
422	381	349	350	3	-0.778	-2.335	0.000	3.113	-0.000	0.000
413	377	351	350	3	-0.778	-2.335	0.000	3.113	-0.000	0.000
414	377	351	350	3	-0.778	-2.335	0.000	3.113	-0.000	0.000
413	377	351	352	3	-0.778	-2.335	0.000	3.113	-0.000	0.000
416	379	378	381	3	0.628	1.883	0.000	-2.510	-0.000	0.000
415	379	378	380	3	0.628	1.883	0.000	-2.510	-0.000	0.000
415	379	378	377	3	0.628	1.883	0.000	-2.510	-0.000	0.000
417	379	378	380	3	0.628	1.883	0.000	-2.510	-0.000	0.000
419	380	378	377	3	0.628	1.883	0.000	-2.510	-0.000	0.000
418	380	378	377	3	0.628	1.883	0.000	-2.510	-0.000	0.000
417	379	378	377	3	0.628	1.883	0.000	-2.510	-0.000	0.000
419	380	378	379	3	0.628	1.883	0.000	-2.510	-0.000	0.000
416	379	378	377	3	0.628	1.883	0.000	-2.510	-0.000	0.000
421	381	378	377	3	0.628	1.883	0.000	-2.510	-0.000	0.000
421	381	378	379	3	0.628	1.883	0.000	-2.510	-0.000	0.000
414	377	378	379	3	0.628	1.883	0.000	-2.510	-0.000	0.000
417	379	378	381	3	0.628	1.883	0.000	-2.510	-0.000	0.000
414	377	378	380	3	0.628	1.883	0.000	-2.510	-0.000	0.000
422	381	378	379	3	0.628	1.883	0.000	-2.510	-0.000	0.000
418	380	378	381	3	0.628	1.883	0.000	-2.510	-0.000	0.000
419	380	378	381	3	0.628	1.883	0.000	-2.510	-0.000	0.000
420	380	378	377	3	0.628	1.883	0.000	-2.510	-0.000	0.000
413	377	378	380	3	0.628	1.883	0.000	-2.510	-0.000	0.000
413	377	378	379	3	0.628	1.883	0.000	-2.510	-0.000	0.000
418	380	378	379	3	0.628	1.883	0.000	-2.510	-0.000	0.000
414	377	378	381	3	0.628	1.883	0.000	-2.510	-0.000	0.000
422	381	378	380	3	0.628	1.883	0.000	-2.510	-0.000	0.000
416	379	378	380	3	0.628	1.883	0.000	-2.510	-0.000	0.000
415	379	378	381	3	0.628	1.883	0.000	-2.510	-0.000	0.000
422	381	378	377	3	0.628	1.883	0.000	-2.510	-0.000	0.000
413	377	378	381	3	0.628	1.883	0.000	-2.510	-0.000	0.000
420	380	378	379	3	0.628	1.883	0.000	-2.510	-0.000	0.000
421	381	378	380	3	0.628	1.883	0.000	-2.510	-0.000	0.000
420	380	378	381	3	0.628	1.883	0.000	-2.510	-0.000	0.000
389	328	327	388	3	0.628	1.883	0.000	-2.510	-0.000	0.000
390	328	327	387	3	0.628	1.883	0.000	-2.510	-0.000	0.000
389	328	327	387	3	0.628	1.883	0.000	-2.510	-0.000	0.000
390	328	327	388	3	0.628	1.883	0.000	-2.510	-0.000	0.000
390	328	327	326	3	-4.096	5.088	2.966	-3.958	-0.000	0.000
389	328	327	326	3	-4.096	5.088	2.966	-3.958	-0.000	0.000
388	327	328	329	3	0.979	2.937	0.000	-3.916	-0.000	0.000
387	327	328	329	3	0.979	2.937	0.000	-3.916	-0.000	0.000
388	327	326	343	3	1.172	3.515	0.000	-4.686	-0.000	0.000
384	325	326	343	3	1.172	3.515	0.000	-4.686	-0.000	0.000
387	327	326	343	3	1.172	3.515	0.000	-4.686	-0.000	0.000
385	325	326	343	3	1.172	3.515	0.000	-4.686	-0.000	0.000
386	325	326	343	3	1.172	3.515	0.000	-4.686	-0.000	0.000
387	327	326	325	3	1.172	3.515	0.000	-4.686	-0.000	0.000
385	325	326	327	3	1.172	3.515	0.000	-4.686	-0.000	0.000
388	327	326	325	3	1.172	3.515	0.000	-4.686	-0.000	0.000
386	325	326	327	3	1.172	3.515	0.000	-4.686	-0.000	0.000
384	325	326	327	3	1.172	3.515	0.000	-4.686	-0.000	0.000
389	328	329	330	3	1.590	4.770	0.000	-6.360	-0.000	0.000
390	328	329	330	3	1.590	4.770	0.000	-6.360	-0.000	0.000
395	338	337	339	3	0.0	0.0	0.0	-0.0	-0.0	0.0
395	338	337	336	3	0.0	0.0	0.0	-0.0	-0.0	0.0
338	337	336	335	3	0.0	0.0	0.0	-0.0	-0.0	0.0
365	366	355	354	3	2.874	0.582	2.092	-5.548	-0.000	0.000
365	366	355	356	3	1.046	-1.046	0.000	-0.000	-0.000	0.000
329	328	327	326	3	16.736	-16.736	0.000	-0.000	-0.000	0.000
365	359	356	355	3	1.046	-1.046	0.000	-0.000	-0.000	0.000
365	359	356	357	3	9.079	0.000	-9.079	-0.000	-0.000	0.000
434	433	432	431	3	30.334	0.000	-30.334	-0.000	-0.000	0.000
433	441	442	430	3	30.334	0.000	-30.334	-0.000	-0.000	0.000
433	432	431	430	3	30.334	0.000	-30.334	-0.000	-0.000	0.000
454	453	452	451	3	21.738	2.408	-16.966	-7.180	-0.000	0.000
450	449	448	447	3	21.738	2.408	-16.966	-7.180	-0.000	0.000
451	450	449	448	3	21.738	2.408	-16.966	-7.180	-0.000	0.000
452	451	450	449	3	21.738	2.408	-16.966	-7.180	-0.000	0.000
453	452	451	450	3	21.738	2.408	-16.966	-7.180	-0.000	0.000
449	448	447	446	3	58.576	0.000	-58.576	-0.000	-0.000	0.000
448	447	446	445	3	16.027	-4.391	-14.029	2.393	-0.000	0.000
447	446	445	444	3	30.334	0.000	-30.334	-0.000	-0.000	0.000
456	455	454	453	3	58.576	0.000	-58.576	-0.000	-0.000	0.000
441	433	434	440	3	9.079	0.000	-9.079	-0.000	-0.000	0.000
440	434	433	432	3	9.079	0.000	-9.079	-0.000	-0.000	0.000
441	433	434	435	3	9.079	0.000	-9.079	-0.000	-0.000	0.000
435	434	433	432	3	9.079	0.000	-9.079	-0.000	-0.000	0.000
440	434	435	436	3	30.334	0.000	-30.334	-0.000	-0.000	0.000
441	433	432	431	3	30.334	0.000	-30.334	-0.000	-0.000	0.000
439	440	434	433	3	30.334	0.000	-30.334	-0.000	-0.000	0.000
442	441	433	434	3	30.334	0.000	-30.334	-0.000	-0.000	0.000
436	435	434	433	3	30.334	0.000	-30.334	-0.000	-0.000	0.000
439	440	434	435	3	30.334	0.000	-30.334	-0.000	-0.000	0.000
442	441	433	432	3	30.334	0.000	-30.334	-0.000	-0.000	0.000
482	446	447	448	3	16.027	-4.391	-14.029	2.393	-0.000	0.000
437	439	440	434	3	30.334	0.000	-30.334	-0.000	-0.000	0.000
437	436	435	434	3	30.334	0.000	-30.334	-0.000	-0.000	0.000
483	482	446	447	3	30.334	0.000	-30.334	-0.000	-0.000	0.000
472	467	468	469	3	30.334	0.000	-30.334	-0.000	-0.000	0.000
483	482	446	445	3	30.334	0.000	-30.334	-0.000	-0.000	0.000
442	430	431	432	3	30.334	0.000	-30.334	-0.000	-0.000	0.000
482	483	443	444	3	30.334	0.000	-30.334	-0.000	-0.000	0.000
472	471	470	469	3	30.334	0.000	-30.334	-0.000	-0.000	0.000
471	470	469	468	3	30.334	0.000	-30.334	-0.000	-0.000	0.000
470	469	468	467	3	30.334	0.000	-30.334	-0.000	-0.000	0.000
446	445	444	443	3	30.334	0.000	-30.334	-0.000	-0.000	0.000
446	482	483	443	3	30.334	0.000	-30.334	-0.000	-0.000	0.000
483	443	444	445	3	30.334	0.000	-30.334	-0.000	-0.000	0.000
482	446	445	444	3	30.334	0.000	-30.334	-0.000	-0.000	0.000
471	472	467	468	3	30.334	0.000	-30.334	-0.000	-0.000	0.000
440	439	437	436	3	30.334	0.000	-30.334	-0.000	-0.000	0.000
441	442	430	431	3	30.334	0.000	-30.334	-0.000	-0.000	0.000
470	471	472	467	3	30.334	0.000	-30.334	-0.000	-0.000	0.000
439	437	436	435	3	30.334	0.000	-30.334	-0.000	-0.000	0.000
471	472	467	466	3	30.334	0.000	-30.334	-0.000	-0.000	0.000
469	468	467	466	3	30.334	0.000	-30.334	-0.000	-0.000	0.000
482	483	443	426	3	30.334	0.000	-30.334	-0.000	-0.000	0.000
445	444	443	426	3	30.334	0.000	-30.334	-0.000	-0.000	0.000
440	439	437	438	3	0.0	0.0	0.0	-0.0	-0.0	0.0
432	431	430	429	3	30.334	0.000	-30.334	-0.000	-0.000	0.000
441	442	430	429	3	30.334	0.000	-30.334	-0.000	-0.000	0.000
472	467	466	455	3	0.000	0.000	0.000	-0.000	-0.000	0.000
468	467	466	455	3	0.000	0.000	0.000	-0.000	-0.000	0.000
472	467	466	465	3	0.000	0.000	0.000	-0.000	-0.000	0.000
468	467	466	465	3	0.000	0.000	0.000	-0.000	-0.000	0.000
483	443	426	427	3	5.184	35.932	-14.355	-26.761	-0.000	0.000
444	443	426	427	3	5.184	35.932	-14.355	-26.761	-0.000	0.000
444	443	426	425	3	5.184	35.932	-14.355	-26.761	-0.000	0.000
483	443	426	425	3	5.184	35.932	-14.355	-26.761	-0.000	0.000
431	430	429	428	3	12.552	0.000	-12.552	-0.000	-0.000	0.000
442	430	429	428	3	12.552	0.000	-12.552	-0.000	-0.000	0.000
467	466	455	454	3	6.322	-2.485	0.707	-4.544	-0.000	0.000
467	466	455	456	3	0.527	-6.397	-1.695	7.565	-0.000	0.000
467	466	465	459	3	1.715	2.845	1.046	-5.607	-0.000	0.000
443	426	427	428	3	1.789	3.492	0.536	-5.816	-0.000	0.000
430	429	428	427	3	1.715	2.845	1.046	-5.607	-0.000	0.000
473	466	467	468	3	0.000	0.000	0.000	-0.000	-0.000	0.000
473	466	467	472	3	0.000	0.000	0.000	-0.000	-0.000	0.000
473	466	455	454	3	6.322	-2.485	0.707	-4.544	-0.000	0.000
473	466	455	456	3	0.527	-6.397	-1.695	7.565	-0.000	0.000
473	466	465	459	3	1.715	2.845	1.046	-5.607	-0.000	0.000
455	454	453	452	3	21.738	2.408	-16.966	-7.180	-0.000	0.000
460	459	456	455	3	21.738	2.408	-16.966	-7.180	-0.000	0.000
460	459	456	457	3	-0.778	-2.335	0.000	3.113	-0.000	0.000
481	449	448	447	3	58.576	0.000	-58.576	-0.000	-0.000	0.000
477	451	450	449	3	58.576	0.000	-58.576	-0.000	-0.000	0.000
481	449	450	451	3	58.576	0.000	-58.576	-0.000	-0.000	0.000
477	451	452	453	3	58.576	0.000	-58.576	-0.000	-0.000	0.000
466	455	454	453	3	-0.778	-2.335	0.000	3.113	-0.000	0.000
466	455	456	459	3	58.576	0.000	-58.576	-0.000	-0.000	0.000
466	455	456	457	3	58.576	0.000	-58.576	-0.000	-0.000	0.000
478	481	449	448	3	0.527	-6.397	-1.695	7.565	-0.000	0.000
478	477	451	452	3	0.527	-6.397	-1.695	7.565	-0.000	0.000
478	477	451	450	3	0.527	-6.397	-1.695	7.565	-0.000	0.000
478	481	449	450	3	0.527	-6.397	-1.695	7.565	-0.000	0.000
481	478	477	451	3	2.301	-1.464	0.837	-1.674	-0.000	0.000
480	478	481	449	3	2.301	-1.464	0.837	-1.674	-0.000	0.000
477	478	481	449	3	2.301	-1.464	0.837	-1.674	-0.000	0.000
479	478	481	449	3	2.301	-1.464	0.837	-1.674	-0.000	0.000
480	478	477	451	3	2.301	-1.464	0.837	-1.674	-0.000	0.000
479	478	477	451	3	2.301	-1.464	0.837	-1.674	-0.000	0.000
428	427	426	425	3	1.789	3.492	0.536	-5.816	-0.000	0.000
466	465	459	456	3	30.334	0.000	-30.334	-0.000	-0.000	0.000
466	465	459	460	3	30.334	0.000	-30.334	-0.000	-0.000	0.000
459	456	455	454	3	58.576	0.000	-58.576	-0.000	-0.000	0.000
459	465	466	455	3	1.715	2.845	1.046	-5.607	-0.000	0.000
457	456	455	454	3	58.576	0.000	-58.576	-0.000	-0.000	0.000
461	460	459	456	3	58.576	0.000	-58.576	-0.000	-0.000	0.000
463	460	459	456	3	58.576	0.000	-58.576	-0.000	-0.000	0.000
474	473	466	467	3	0.000	0.000	0.000	-0.000	-0.000	0.000
475	473	466	467	3	0.000	0.000	0.000	-0.000	-0.000	0.000
476	473	466	467	3	0.000	0.000	0.000	-0.000	-0.000	0.000
475	473	466	455	3	0.000	0.000	0.000	-0.000	-0.000	0.000
474	473	466	455	3	0.000	0.000	0.000	-0.000	-0.000	0.000
476	473	466	455	3	0.000	0.000	0.000	-0.000	-0.000	0.000
475	473	466	465	3	1.130	3.389	0.000	-4.519	-0.000	0.000
476	473	466	465	3	1.130	3.389	0.000	-4.519	-0.000	0.000
474	473	466	465	3	1.130	3.389	0.000	-4.519	-0.000	0.000
504	450	449	448	3	58.576	0.000	-58.576	-0.000	-0.000	0.000
504	450	451	452	3	58.576	0.000	-58.576	-0.000	-0.000	0.000
504	450	451	477	3	58.576	0.000	-58.576	-0.000	-0.000	0.000
504	450	449	481	3	58.576	0.000	-58.576	-0.000	-0.000	0.000
493	435	434	433	3	30.334	0.000	-30.334	-0.000	-0.000	0.000
492	432	433	434	3	30.334	0.000	-30.334	-0.000	-0.000	0.000
498	441	433	434	3	30.334	0.000	-30.334	-0.000	-0.000	0.000
497	440	434	433	3	30.334	0.000	-30.334	-0.000	-0.000	0.000
497	440	434	435	3	30.334	0.000	-30.334	-0.000	-0.000	0.000
493	435	434	440	3	30.334	0.000	-30.334	-0.000	-0.000	0.000
492	432	433	441	3	30.334	0.000	-30.334	-0.000	-0.000	0.000
498	441	433	432	3	30.334	0.000	-30.334	-0.000	-0.000	0.000
491	431	432	433	3	30.334	0.000	-30.334	-0.000	-0.000	0.000
499	442	441	433	3	30.334	0.000	-30.334	-0.000	-0.000	0.000
494	436	435	434	3	30.334	0.000	-30.334	-0.000	-0.000	0.000
496	439	440	434	3	30.334	0.000	-30.334	-0.000	-0.000	0.000
501	445	446	447	3	30.334	0.000	-30.334	-0.000	-0.000	0.000
523	482	446	447	3	30.334	0.000	-30.334	-0.000	-0.000	0.000
508	468	469	470	3	30.334	0.000	-30.334	-0.000	-0.000	0.000
496	439	437	436	3	30.334	0.000	-30.334	-0.000	-0.000	0.000
511	471	470	469	3	30.334	0.000	-30.334	-0.000	-0.000	0.000
523	482	483	443	3	30.334	0.000	-30.334	-0.000	-0.000	0.000
509	469	468	467	3	30.334	0.000	-30.334	-0.000	-0.000	0.000
524	483	482	446	3	30.334	0.000	-30.334	-0.000	-0.000	0.000
510	470	469	468	3	30.334	0.000	-30.334	-0.000	-0.000	0.000
499	442	430	431	3	30.334	0.000	-30.334	-0.000	-0.000	0.000
498	441	442	430	3	30.334	0.000	-30.334	-0.000	-0.000	0.000
523	482	446	445	3	30.334	0.000	-30.334	-0.000	-0.000	0.000
524	483	443	444	3	30.334	0.000	-30.334	-0.000	-0.000	0.000
511	471	472	467	3	30.334	0.000	-30.334	-0.000	-0.000	0.000
508	468	467	472	3	30.334	0.000	-30.334	-0.000	-0.000	0.000
493	435	436	437	3	30.334	0.000	-30.334	-0.000	-0.000	0.000
494	436	437	439	3	30.334	0.000	-30.334	-0.000	-0.000	0.000
491	431	430	442	3	30.334	0.000	-30.334	-0.000	-0.000	0.000
500	444	443	483	3	30.334	0.000	-30.334	-0.000	-0.000	0.000
500	444	445	446	3	30.334	0.000	-30.334	-0.000	-0.000	0.000
497	440	439	437	3	30.334	0.000	-30.334	-0.000	-0.000	0.000
501	445	446	482	3	30.334	0.000	-30.334	-0.000	-0.000	0.000
510	470	471	472	3	30.334	0.000	-30.334	-0.000	-0.000	0.000
512	472	471	470	3	30.334	0.000	-30.334	-0.000	-0.000	0.000
509	469	470	471	3	30.334	0.000	-30.334	-0.000	-0.000	0.000
512	472	467	468	3	30.334	0.000	-30.334	-0.000	-0.000	0.000
492	432	431	430	3	30.334	0.000	-30.334	-0.000	-0.000	0.000
501	445	444	443	3	30.334	0.000	-30.334	-0.000	-0.000	0.000
512	472	467	466	3	30.334	0.000	-30.334	-0.000	-0.000	0.000
508	468	467	466	3	30.334	0.000	-30.334	-0.000	-0.000	0.000
501	445	444	500	3	30.334	0.000	-30.334	-0.000	-0.000	0.000
524	483	482	523	3	30.334	0.000	-30.334	-0.000	-0.000	0.000
510	470	469	509	3	30.334	0.000	-30.334	-0.000	-0.000	0.000
494	436	435	493	3	30.334	0.000	-30.334	-0.000	-0.000	0.000
499	442	441	498	3	30.334	0.000	-30.334	-0.000	-0.000	0.000
497	440	439	496	3	30.334	0.000	-30.334	-0.000	-0.000	0.000
509	469	468	508	3	30.334	0.000	-30.334	-0.000	-0.000	0.000
492	432	431	491	3	30.334	0.000	-30.334	-0.000	-0.000	0.000
511	471	470	510	3	30.334	0.000	-30.334	-0.000	-0.000	0.000
512	472	471	511	3	30.334	0.000	-30.334	-0.000	-0.000	0.000
524	483	443	426	3	30.334	0.000	-30.334	-0.000	-0.000	0.000
500	444	443	426	3	30.334	0.000	-30.334	-0.000	-0.000	0.000
494	436	437	438	3	0.0	0.0	0.0	-0.0	-0.0	0.0
496	439	437	438	3	0.0	0.0	0.0	-0.0	-0.0	0.0
491	431	430	429	3	30.334	0.000	-30.334	-0.000	-0.000	0.000
499	442	430	429	3	30.334	0.000	-30.334	-0.000	-0.000	0.000
505	452	451	450	3	58.576	0.000	-58.576	-0.000	-0.000	0.000
505	452	453	454	3	58.576	0.000	-58.576	-0.000	-0.000	0.000
507	454	453	452	3	58.576	0.000	-58.576	-0.000	-0.000	0.000
506	453	452	451	3	58.576	0.000	-58.576	-0.000	-0.000	0.000
503	448	449	450	3	58.576	0.000	-58.576	-0.000	-0.000	0.000
502	447	448	449	3	58.576	0.000	-58.576	-0.000	-0.000	0.000
503	448	447	446	3	58.576	0.000	-58.576	-0.000	-0.000	0.000
506	453	454	455	3	58.576	0.000	-58.576	-0.000	-0.000	0.000
505	452	451	477	3	58.576	0.000	-58.576	-0.000	-0.000	0.000
503	448	449	481	3	58.576	0.000	-58.576	-0.000	-0.000	0.000
503	448	447	502	3	58.576	0.000	-58.576	-0.000	-0.000	0.000
506	453	452	505	3	58.576	0.000	-58.576	-0.000	-0.000	0.000
507	454	453	506	3	58.576	0.000	-58.576	-0.000	-0.000	0.000
502	447	446	482	3	-0.778	-2.335	0.000	3.113	-0.000	0.000
502	447	446	445	3	-0.778	-2.335	0.000	3.113	-0.000	0.000
507	454	455	456	3	58.576	0.000	-58.576	-0.000	-0.000	0.000
507	454	455	466	3	58.576	0.000	-58.576	-0.000	-0.000	0.000
521	481	449	448	3	-0.778	-2.335	0.000	3.113	-0.000	0.000
521	481	449	450	3	-0.778	-2.335	0.000	3.113	-0.000	0.000
522	481	449	448	3	-0.778	-2.335	0.000	3.113	-0.000	0.000
514	477	451	452	3	-0.778	-2.335	0.000	3.113	-0.000	0.000
522	481	449	450	3	-0.778	-2.335	0.000	3.113	-0.000	0.000
513	477	451	450	3	-0.778	-2.335	0.000	3.113	-0.000	0.000
514	477	451	450	3	-0.778	-2.335	0.000	3.113	-0.000	0.000
513	477	451	452	3	-0.778	-2.335	0.000	3.113	-0.000	0.000
516	479	478	481	3	0.628	1.883	0.000	-2.510	-0.000	0.000
515	479	478	480	3	0.628	1.883	0.000	-2.510	-0.000	0.000
515	479	478	477	3	0.628	1.883	0.000	-2.510	-0.000	0.000
517	479	478	480	3	0.628	1.883	0.000	-2.510	-0.000	0.000
519	480	478	477	3	0.628	1.883	0.000	-2.510	-0.000	0.000
518	480	478	477	3	0.628	1.883	0.000	-2.510	-0.000	0.000
517	479	478	477	3	0.628	1.883	0.000	-2.510	-0.000	0.000
519	480	478	479	3	0.628	1.883	0.000	-2.510	-0.000	0.000
516	479	478	477	3	0.628	1.883	0.000	-2.510	-0.000	0.000
521	481	478	477	3	0.628	1.883	0.000	-2.510	-0.000	0.000
521	481	478	479	3	0.628	1.883	0.000	-2.510	-0.000	0.000
514	477	478	479	3	0.628	1.883	0.000	-2.510	-0.000	0.000
517	479	478	481	3	0.628	1.883	0.000	-2.510	-0.000	0.000
514	477	478	480	3	0.628	1.883	0.000	-2.510	-0.000	0.000
522	481	478	479	3	0.628	1.883	0.000	-2.510	-0.000	0.000
518	480	478	481	3	0.628	1.883	0.000	-2.510	-0.000	0.000
519	480	478	481	3	0.628	1.883	0.000	-2.510	-0.000	0.000
520	480	478	477	3	0.628	1.883	0.000	-2.510	-0.000	0.000
513	477	478	480	3	0.628	1.883	0.000	-2.510	-0.000	0.000
513	477	478	479	3	0.628	1.883	0.000	-2.510	-0.000	0.000
518	480	478	479	3	0.628	1.883	0.000	-2.510	-0.000	0.000
514	477	478	481	3	0.628	1.883	0.000	-2.510	-0.000	0.000
522	481	478	480	3	0.628	1.883	0.000	-2.510	-0.000	0.000
516	479	478	480	3	0.628	1.883	0.000	-2.510	-0.000	0.000
515	479	478	481	3	0.628	1.883	0.000	-2.510	-0.000	0.000
522	481	478	477	3	0.628	1.883	0.000	-2.510	-0.000	0.000
513	477	478	481	3	0.628	1.883	0.000	-2.510	-0.000	0.000
520	480	478	479	3	0.628	1.883	0.000	-2.510	-0.000	0.000
521	481	478	480	3	0.628	1.883	0.000	-2.510	-0.000	0.000
520	480	478	481	3	0.628	1.883	0.000	-2.510	-0.000	0.000
489	428	427	488	3	0.628	1.883	0.000	-2.510	-0.000	0.000
490	428	427	487	3	0.628	1.883	0.000	-2.510	-0.000	0.000
489	428	427	487	3	0.628	1.883	0.000	-2.510	-0.000	0.000
490	428	427	488	3	0.628	1.883	0.000	-2.510	-0.000	0.000
490	428	427	426	3	-4.096	5.088	2.966	-3.958	-0.000	0.000
489	428	427	426	3	-4.096	5.088	2.966	-3.958	-0.000	0.000
488	427	428	429	3	0.979	2.937	0.000	-3.916	-0.000	0.000
487	427	428	429	3	0.979	2.937	0.000	-3.916	-0.000	0.000
488	427	426	443	3	1.172	3.515	0.000	-4.686	-0.000	0.000
484	425	426	443	3	1.172	3.515	0.000	-4.686	-0.000	0.000
487	427	426	443	3	1.172	3.515	0.000	-4.686	-0.000	0.000
485	425	426	443	3	1.172	3.515	0.000	-4.686	-0.000	0.000
486	425	426	443	3	1.172	3.515	0.000	-4.686	-0.000	0.000
487	427	426	425	3	1.172	3.515	0.000	-4.686	-0.000	0.000
485	425	426	427	3	1.172	3.515	0.000	-4.686	-0.000	0.000
488	427	426	425	3	1.172	3.515	0.000	-4.686	-0.000	0.000
486	425	426	427	3	1.172	3.515	0.000	-4.686	-0.000	0.000
484	425	426	427	3	1.172	3.515	0.000	-4.686	-0.000	0.000
489	428	429	430	3	1.590	4.770	0.000	-6.360	-0.000	0.000
490	428	429	430	3	1.590	4.770	0.000	-6.360	-0.000	0.000
495	438	437	439	3	0.0	0.0	0.0	-0.0	-0.0	0.0
495	438	437	436	3	0.0	0.0	0.0	-0.0	-0.0	0.0
438	437	436	435	3	0.0	0.0	0.0	-0.0	-0.0	0.0
465	466	455	454	3	2.874	0.582	2.092	-5.548	-0.000	0.000
465	466	455	456	3	1.046	-1.046	0.000	-0.000	-0.000	0.000
429	428	427	426	3	16.736	-16.736	0.000	-0.000	-0.000	0.000
465	459	456	455	3	1.046	-1.046	0.000	-0.000	-0.000	0.000
465	459	456	457	3	9.079	0.000	-9.079	-0.000	-0.000	0.000
