Generated slab structure
100
    1NGb    C00    1  -0.075   0.844  -1.212
    1NGb    N01    2  -0.105   0.716  -1.272
    1NGb    C02    3  -0.208   0.653  -1.190
    1NGb    C03    4  -0.151   0.600  -1.056
    1NGb    O04    5  -0.254   0.518  -1.003
    1NGb    C05    6  -0.231   0.466  -0.878
    1NGb    C06    7  -0.108   0.483  -0.812
    1NGb    C07    8  -0.087   0.422  -0.688
    1NGb    C08    9  -0.188   0.344  -0.630
    1NGb    C09   10  -0.166   0.283  -0.497
    1NGb    C0A   11  -0.079   0.341  -0.403
    1NGb    C0B   12  -0.060   0.284  -0.276
    1NGb    C0C   13  -0.124   0.164  -0.243
    1NGb    DUM   14  -0.102   0.100  -0.123
    1NGb    C0E   15  -0.211   0.105  -0.336
    1NGb    C0F   16  -0.233   0.166  -0.460
    1NGb    C0G   17  -0.310   0.326  -0.695
    1NGb    C0H   18  -0.331   0.389  -0.818
    1NGb    C0I   19  -0.117   0.723  -1.406
    1NGb    C0J   20  -0.000   0.728  -1.490
    1NGb    C0K   21  -0.015   0.756  -1.623
    1NGb    C0M   22  -0.137   0.766  -1.683
    1NGb    C0N   23  -0.146   0.777  -1.828
    1NGb    C0O   24  -0.244   0.850  -1.882
    1NGb    C0P   25  -0.278   0.865  -2.015
    1NGb    C0Q   26  -0.192   0.822  -2.108
    1NGb    C0R   27  -0.216   0.841  -2.238
    1NGb    C0S   28  -0.121   0.795  -2.335
    1NGb    C0T   29  -0.136   0.797  -2.465
    1NGb    C0U   30  -0.042   0.747  -2.553
    1NGb    C0V   31  -0.038   0.752  -2.704
    1NGb    C0W   32  -0.134   0.806  -2.777
    1NGb    C0X   33  -0.247   0.879  -2.725
    1NGb    N0Y   34  -0.355   0.925  -2.707
    1NGb    C0Z   35  -0.101   0.785  -2.906
    1NGb    C10   36  -0.154   0.833  -3.025
    1NGb    C11   37  -0.275   0.900  -3.029
    1NGb    N12   38  -0.378   0.963  -3.041
    1NGb    C13   39  -0.102   0.780  -3.148
    1NGb    N14   40  -0.048   0.758  -3.254
    1NGb    O15   41   0.016   0.715  -2.915
    1NGb    C16   42   0.069   0.683  -2.782
    1NGb    C17   43   0.065   0.535  -2.754
    1NGb    C18   44  -0.033   0.459  -2.809
    1NGb    C19   45  -0.034   0.328  -2.787
    1NGb    C1A   46   0.062   0.267  -2.714
    1NGb    C1B   47   0.161   0.342  -2.655
    1NGb    C1C   48   0.159   0.480  -2.670
    1NGb    C1D   49   0.201   0.761  -2.770
    1NGb    F1E   50   0.175   0.889  -2.823
    1NGb    F1F   51   0.247   0.779  -2.642
    1NGb    F1G   52   0.289   0.703  -2.839
    1NGb    C1H   53  -0.331   0.935  -2.289
    1NGb    C1I   54  -0.375   1.027  -2.181
    1NGb    C1J   55  -0.278   1.136  -2.172
    1NGb    C1K   56  -0.514   1.086  -2.220
    1NGb    C1M   57  -0.396   0.953  -2.056
    1NGb    C1N   58  -0.254   0.751  -1.607
    1NGb    C1O   59  -0.242   0.738  -1.465
    1NGb    H1P   60   0.014   0.885  -1.259
    1NGb    H1Q   61  -0.064   0.846  -1.104
    1NGb    H1R   62  -0.159   0.913  -1.231
    1NGb    H1S   63  -0.250   0.566  -1.242
    1NGb    H1T   64  -0.293   0.719  -1.170
    1NGb    H1U   65  -0.128   0.678  -0.985
    1NGb    H1V   66  -0.064   0.538  -1.076
    1NGb    H1W   67  -0.025   0.540  -0.852
    1NGb    H1X   68   0.008   0.434  -0.641
    1NGb    H1Y   69  -0.028   0.433  -0.425
    1NGb    H1Z   70   0.008   0.331  -0.207
    1NGb    DUM   71  -0.060   0.154  -0.058
    1NGb    H21   72  -0.263   0.015  -0.311
    1NGb    H22   73  -0.300   0.116  -0.529
    1NGb    H23   74  -0.392   0.271  -0.653
    1NGb    H24   75  -0.425   0.379  -0.872
    1NGb    H25   76   0.097   0.720  -1.443
    1NGb    H26   77   0.074   0.759  -1.686
    1NGb    H27   78  -0.078   0.715  -1.886
    1NGb    H28   79  -0.309   0.901  -1.815
    1NGb    H29   80  -0.099   0.776  -2.086
    1NGb    H2A   81  -0.030   0.752  -2.294
    1NGb    H2B   82  -0.227   0.844  -2.496
    1NGb    H2C   83   0.033   0.693  -2.497
    1NGb    H2D   84  -0.108   0.500  -2.875
    1NGb    H2E   85  -0.110   0.262  -2.827
    1NGb    H2F   86   0.059   0.160  -2.697
    1NGb    H2G   87   0.239   0.302  -2.593
    1NGb    H2H   88   0.229   0.553  -2.635
    1NGb    H2I   89  -0.422   0.879  -2.309
    1NGb    H2J   90  -0.307   0.986  -2.382
    1NGb    H2K   91  -0.257   1.188  -2.266
    1NGb    H2M   92  -0.182   1.096  -2.138
    1NGb    H2N   93  -0.302   1.202  -2.089
    1NGb    H2O   94  -0.595   1.014  -2.239
    1NGb    H2P   95  -0.499   1.149  -2.306
    1NGb    H2Q   96  -0.540   1.152  -2.137
    1NGb    H2R   97  -0.476   0.881  -2.076
    1NGb    H2S   98  -0.426   1.015  -1.971
    1NGb    H2T   99  -0.351   0.757  -1.652
    1NGb    H2U  100  -0.333   0.737  -1.408
5.91896 5.91896 4.73987 
