generated by VMD, t= 0.000000
100
    1NGb    C00    1   0.493   1.029  -1.203
    1NGb    N01    2   0.463   0.901  -1.263
    1NGb    C02    3   0.360   0.838  -1.181
    1NGb    C03    4   0.417   0.785  -1.047
    1NGb    O04    5   0.314   0.703  -0.994
    1NGb    C05    6   0.337   0.651  -0.869
    1NGb    C06    7   0.460   0.668  -0.803
    1NGb    C07    8   0.481   0.607  -0.679
    1NGb    C08    9   0.380   0.529  -0.621
    1NGb    C09   10   0.402   0.468  -0.488
    1NGb    C0A   11   0.489   0.526  -0.394
    1NGb    C0B   12   0.508   0.469  -0.267
    1NGb    C0C   13   0.444   0.349  -0.234
    1NGb    O0D   14   0.466   0.285  -0.114
    1NGb    C0E   15   0.357   0.290  -0.327
    1NGb    C0F   16   0.335   0.351  -0.451
    1NGb    C0G   17   0.258   0.511  -0.686
    1NGb    C0H   18   0.237   0.574  -0.809
    1NGb    C0I   19   0.451   0.908  -1.397
    1NGb    C0J   20   0.568   0.913  -1.481
    1NGb    C0K   21   0.553   0.941  -1.614
    1NGb    C0M   22   0.431   0.951  -1.674
    1NGb    C0N   23   0.422   0.962  -1.819
    1NGb    C0O   24   0.324   1.035  -1.873
    1NGb    C0P   25   0.290   1.050  -2.006
    1NGb    C0Q   26   0.376   1.007  -2.099
    1NGb    C0R   27   0.352   1.026  -2.229
    1NGb    C0S   28   0.447   0.980  -2.326
    1NGb    C0T   29   0.432   0.982  -2.456
    1NGb    C0U   30   0.526   0.932  -2.544
    1NGb    C0V   31   0.530   0.937  -2.695
    1NGb    C0W   32   0.434   0.991  -2.768
    1NGb    C0X   33   0.321   1.064  -2.716
    1NGb    N0Y   34   0.213   1.110  -2.698
    1NGb    C0Z   35   0.467   0.970  -2.897
    1NGb    C10   36   0.414   1.018  -3.016
    1NGb    C11   37   0.293   1.085  -3.020
    1NGb    N12   38   0.190   1.148  -3.032
    1NGb    C13   39   0.466   0.965  -3.139
    1NGb    N14   40   0.520   0.943  -3.245
    1NGb    O15   41   0.584   0.900  -2.906
    1NGb    C16   42   0.637   0.868  -2.773
    1NGb    C17   43   0.633   0.720  -2.745
    1NGb    C18   44   0.535   0.644  -2.800
    1NGb    C19   45   0.534   0.513  -2.778
    1NGb    C1A   46   0.630   0.452  -2.705
    1NGb    C1B   47   0.729   0.527  -2.646
    1NGb    C1C   48   0.727   0.665  -2.661
    1NGb    C1D   49   0.769   0.946  -2.761
    1NGb    F1E   50   0.743   1.074  -2.814
    1NGb    F1F   51   0.815   0.964  -2.633
    1NGb    F1G   52   0.857   0.888  -2.830
    1NGb    C1H   53   0.237   1.120  -2.280
    1NGb    C1I   54   0.193   1.212  -2.172
    1NGb    C1J   55   0.290   1.321  -2.163
    1NGb    C1K   56   0.054   1.271  -2.211
    1NGb    C1M   57   0.172   1.138  -2.047
    1NGb    C1N   58   0.314   0.936  -1.598
    1NGb    C1O   59   0.326   0.923  -1.456
    1NGb    H1P   60   0.582   1.070  -1.250
    1NGb    H1Q   61   0.504   1.031  -1.095
    1NGb    H1R   62   0.409   1.098  -1.222
    1NGb    H1S   63   0.318   0.751  -1.233
    1NGb    H1T   64   0.275   0.904  -1.161
    1NGb    H1U   65   0.440   0.863  -0.976
    1NGb    H1V   66   0.504   0.723  -1.067
    1NGb    H1W   67   0.543   0.725  -0.843
    1NGb    H1X   68   0.576   0.619  -0.632
    1NGb    H1Y   69   0.540   0.618  -0.416
    1NGb    H1Z   70   0.576   0.516  -0.198
    1NGb    H20   71   0.508   0.339  -0.049
    1NGb    H21   72   0.305   0.200  -0.302
    1NGb    H22   73   0.268   0.301  -0.520
    1NGb    H23   74   0.176   0.456  -0.644
    1NGb    H24   75   0.143   0.564  -0.863
    1NGb    H25   76   0.665   0.905  -1.434
    1NGb    H26   77   0.642   0.944  -1.677
    1NGb    H27   78   0.490   0.900  -1.877
    1NGb    H28   79   0.259   1.086  -1.806
    1NGb    H29   80   0.469   0.961  -2.077
    1NGb    H2A   81   0.538   0.937  -2.285
    1NGb    H2B   82   0.341   1.029  -2.487
    1NGb    H2C   83   0.601   0.878  -2.488
    1NGb    H2D   84   0.460   0.685  -2.866
    1NGb    H2E   85   0.458   0.447  -2.818
    1NGb    H2F   86   0.627   0.345  -2.688
    1NGb    H2G   87   0.807   0.487  -2.584
    1NGb    H2H   88   0.797   0.738  -2.626
    1NGb    H2I   89   0.146   1.064  -2.300
    1NGb    H2J   90   0.261   1.171  -2.373
    1NGb    H2K   91   0.311   1.373  -2.257
    1NGb    H2M   92   0.386   1.281  -2.129
    1NGb    H2N   93   0.266   1.387  -2.080
    1NGb    H2O   94  -0.027   1.199  -2.230
    1NGb    H2P   95   0.069   1.334  -2.297
    1NGb    H2Q   96   0.028   1.337  -2.128
    1NGb    H2R   97   0.092   1.066  -2.067
    1NGb    H2S   98   0.142   1.200  -1.962
    1NGb    H2T   99   0.217   0.942  -1.643
    1NGb    H2U  100   0.235   0.922  -1.399
   1.47970   1.47970   0.73990   0.00000   0.00000   0.00000   0.00000   0.00000   0.00000
