Generated slab structure
6400
    1NGb    C00    1  -0.075   0.844  -1.212
    1NGb    N01    2  -0.105   0.716  -1.272
    1NGb    C02    3  -0.208   0.653  -1.190
    1NGb    C03    4  -0.151   0.600  -1.056
    1NGb    O04    5  -0.254   0.518  -1.003
    1NGb    C05    6  -0.231   0.466  -0.878
    1NGb    C06    7  -0.108   0.483  -0.812
    1NGb    C07    8  -0.087   0.422  -0.688
    1NGb    C08    9  -0.188   0.344  -0.630
    1NGb    C09   10  -0.166   0.283  -0.497
    1NGb    C0A   11  -0.079   0.341  -0.403
    1NGb    C0B   12  -0.060   0.284  -0.276
    1NGb    C0C   13  -0.124   0.164  -0.243
    1NGb    DUM   14  -0.102   0.100  -0.123
    1NGb    C0E   15  -0.211   0.105  -0.336
    1NGb    C0F   16  -0.233   0.166  -0.460
    1NGb    C0G   17  -0.310   0.326  -0.695
    1NGb    C0H   18  -0.331   0.389  -0.818
    1NGb    C0I   19  -0.117   0.723  -1.406
    1NGb    C0J   20   0.000   0.728  -1.490
    1NGb    C0K   21  -0.015   0.756  -1.623
    1NGb    C0M   22  -0.137   0.766  -1.683
    1NGb    C0N   23  -0.146   0.777  -1.828
    1NGb    C0O   24  -0.244   0.850  -1.882
    1NGb    C0P   25  -0.278   0.865  -2.015
    1NGb    C0Q   26  -0.192   0.822  -2.108
    1NGb    C0R   27  -0.216   0.841  -2.238
    1NGb    C0S   28  -0.121   0.795  -2.335
    1NGb    C0T   29  -0.136   0.797  -2.465
    1NGb    C0U   30  -0.042   0.747  -2.553
    1NGb    C0V   31  -0.038   0.752  -2.704
    1NGb    C0W   32  -0.134   0.806  -2.777
    1NGb    C0X   33  -0.247   0.879  -2.725
    1NGb    N0Y   34  -0.355   0.925  -2.707
    1NGb    C0Z   35  -0.101   0.785  -2.906
    1NGb    C10   36  -0.154   0.833  -3.025
    1NGb    C11   37  -0.275   0.900  -3.029
    1NGb    N12   38  -0.378   0.963  -3.041
    1NGb    C13   39  -0.102   0.780  -3.148
    1NGb    N14   40  -0.048   0.758  -3.254
    1NGb    O15   41   0.016   0.715  -2.915
    1NGb    C16   42   0.069   0.683  -2.782
    1NGb    C17   43   0.065   0.535  -2.754
    1NGb    C18   44  -0.033   0.459  -2.809
    1NGb    C19   45  -0.034   0.328  -2.787
    1NGb    C1A   46   0.062   0.267  -2.714
    1NGb    C1B   47   0.161   0.342  -2.655
    1NGb    C1C   48   0.159   0.480  -2.670
    1NGb    C1D   49   0.201   0.761  -2.770
    1NGb    F1E   50   0.175   0.889  -2.823
    1NGb    F1F   51   0.247   0.779  -2.642
    1NGb    F1G   52   0.289   0.703  -2.839
    1NGb    C1H   53  -0.331   0.935  -2.289
    1NGb    C1I   54  -0.375   1.027  -2.181
    1NGb    C1J   55  -0.278   1.136  -2.172
    1NGb    C1K   56  -0.514   1.086  -2.220
    1NGb    C1M   57  -0.396   0.953  -2.056
    1NGb    C1N   58  -0.254   0.751  -1.607
    1NGb    C1O   59  -0.242   0.738  -1.465
    1NGb    H1P   60   0.014   0.885  -1.259
    1NGb    H1Q   61  -0.064   0.846  -1.104
    1NGb    H1R   62  -0.159   0.913  -1.231
    1NGb    H1S   63  -0.250   0.566  -1.242
    1NGb    H1T   64  -0.293   0.719  -1.170
    1NGb    H1U   65  -0.128   0.678  -0.985
    1NGb    H1V   66  -0.064   0.538  -1.076
    1NGb    H1W   67  -0.025   0.540  -0.852
    1NGb    H1X   68   0.008   0.434  -0.641
    1NGb    H1Y   69  -0.028   0.433  -0.425
    1NGb    H1Z   70   0.008   0.331  -0.207
    1NGb    DUM   71  -0.060   0.154  -0.058
    1NGb    H21   72  -0.263   0.015  -0.311
    1NGb    H22   73  -0.300   0.116  -0.529
    1NGb    H23   74  -0.392   0.271  -0.653
    1NGb    H24   75  -0.425   0.379  -0.872
    1NGb    H25   76   0.097   0.720  -1.443
    1NGb    H26   77   0.074   0.759  -1.686
    1NGb    H27   78  -0.078   0.715  -1.886
    1NGb    H28   79  -0.309   0.901  -1.815
    1NGb    H29   80  -0.099   0.776  -2.086
    1NGb    H2A   81  -0.030   0.752  -2.294
    1NGb    H2B   82  -0.227   0.844  -2.496
    1NGb    H2C   83   0.033   0.693  -2.497
    1NGb    H2D   84  -0.108   0.500  -2.875
    1NGb    H2E   85  -0.110   0.262  -2.827
    1NGb    H2F   86   0.059   0.160  -2.697
    1NGb    H2G   87   0.239   0.302  -2.593
    1NGb    H2H   88   0.229   0.553  -2.635
    1NGb    H2I   89  -0.422   0.879  -2.309
    1NGb    H2J   90  -0.307   0.986  -2.382
    1NGb    H2K   91  -0.257   1.188  -2.266
    1NGb    H2M   92  -0.182   1.096  -2.138
    1NGb    H2N   93  -0.302   1.202  -2.089
    1NGb    H2O   94  -0.595   1.014  -2.239
    1NGb    H2P   95  -0.499   1.149  -2.306
    1NGb    H2Q   96  -0.540   1.152  -2.137
    1NGb    H2R   97  -0.476   0.881  -2.076
    1NGb    H2S   98  -0.426   1.015  -1.971
    1NGb    H2T   99  -0.351   0.757  -1.652
    1NGb    H2U  100  -0.333   0.737  -1.408
    1NGb    C00    1   0.665   0.844  -1.212
    1NGb    N01    2   0.635   0.716  -1.272
    1NGb    C02    3   0.532   0.653  -1.190
    1NGb    C03    4   0.589   0.600  -1.056
    1NGb    O04    5   0.486   0.518  -1.003
    1NGb    C05    6   0.509   0.466  -0.878
    1NGb    C06    7   0.632   0.483  -0.812
    1NGb    C07    8   0.653   0.422  -0.688
    1NGb    C08    9   0.552   0.344  -0.630
    1NGb    C09   10   0.574   0.283  -0.497
    1NGb    C0A   11   0.661   0.341  -0.403
    1NGb    C0B   12   0.680   0.284  -0.276
    1NGb    C0C   13   0.616   0.164  -0.243
    1NGb    DUM   14   0.638   0.100  -0.123
    1NGb    C0E   15   0.529   0.105  -0.336
    1NGb    C0F   16   0.507   0.166  -0.460
    1NGb    C0G   17   0.430   0.326  -0.695
    1NGb    C0H   18   0.409   0.389  -0.818
    1NGb    C0I   19   0.623   0.723  -1.406
    1NGb    C0J   20   0.740   0.728  -1.490
    1NGb    C0K   21   0.725   0.756  -1.623
    1NGb    C0M   22   0.603   0.766  -1.683
    1NGb    C0N   23   0.594   0.777  -1.828
    1NGb    C0O   24   0.496   0.850  -1.882
    1NGb    C0P   25   0.462   0.865  -2.015
    1NGb    C0Q   26   0.548   0.822  -2.108
    1NGb    C0R   27   0.524   0.841  -2.238
    1NGb    C0S   28   0.619   0.795  -2.335
    1NGb    C0T   29   0.604   0.797  -2.465
    1NGb    C0U   30   0.698   0.747  -2.553
    1NGb    C0V   31   0.702   0.752  -2.704
    1NGb    C0W   32   0.606   0.806  -2.777
    1NGb    C0X   33   0.493   0.879  -2.725
    1NGb    N0Y   34   0.385   0.925  -2.707
    1NGb    C0Z   35   0.639   0.785  -2.906
    1NGb    C10   36   0.586   0.833  -3.025
    1NGb    C11   37   0.465   0.900  -3.029
    1NGb    N12   38   0.362   0.963  -3.041
    1NGb    C13   39   0.638   0.780  -3.148
    1NGb    N14   40   0.692   0.758  -3.254
    1NGb    O15   41   0.756   0.715  -2.915
    1NGb    C16   42   0.809   0.683  -2.782
    1NGb    C17   43   0.805   0.535  -2.754
    1NGb    C18   44   0.707   0.459  -2.809
    1NGb    C19   45   0.706   0.328  -2.787
    1NGb    C1A   46   0.802   0.267  -2.714
    1NGb    C1B   47   0.901   0.342  -2.655
    1NGb    C1C   48   0.899   0.480  -2.670
    1NGb    C1D   49   0.941   0.761  -2.770
    1NGb    F1E   50   0.915   0.889  -2.823
    1NGb    F1F   51   0.987   0.779  -2.642
    1NGb    F1G   52   1.029   0.703  -2.839
    1NGb    C1H   53   0.409   0.935  -2.289
    1NGb    C1I   54   0.365   1.027  -2.181
    1NGb    C1J   55   0.462   1.136  -2.172
    1NGb    C1K   56   0.226   1.086  -2.220
    1NGb    C1M   57   0.344   0.953  -2.056
    1NGb    C1N   58   0.486   0.751  -1.607
    1NGb    C1O   59   0.498   0.738  -1.465
    1NGb    H1P   60   0.754   0.885  -1.259
    1NGb    H1Q   61   0.676   0.846  -1.104
    1NGb    H1R   62   0.581   0.913  -1.231
    1NGb    H1S   63   0.490   0.566  -1.242
    1NGb    H1T   64   0.447   0.719  -1.170
    1NGb    H1U   65   0.612   0.678  -0.985
    1NGb    H1V   66   0.676   0.538  -1.076
    1NGb    H1W   67   0.715   0.540  -0.852
    1NGb    H1X   68   0.748   0.434  -0.641
    1NGb    H1Y   69   0.712   0.433  -0.425
    1NGb    H1Z   70   0.748   0.331  -0.207
    1NGb    DUM   71   0.680   0.154  -0.058
    1NGb    H21   72   0.477   0.015  -0.311
    1NGb    H22   73   0.440   0.116  -0.529
    1NGb    H23   74   0.348   0.271  -0.653
    1NGb    H24   75   0.315   0.379  -0.872
    1NGb    H25   76   0.837   0.720  -1.443
    1NGb    H26   77   0.814   0.759  -1.686
    1NGb    H27   78   0.662   0.715  -1.886
    1NGb    H28   79   0.431   0.901  -1.815
    1NGb    H29   80   0.641   0.776  -2.086
    1NGb    H2A   81   0.710   0.752  -2.294
    1NGb    H2B   82   0.513   0.844  -2.496
    1NGb    H2C   83   0.773   0.693  -2.497
    1NGb    H2D   84   0.632   0.500  -2.875
    1NGb    H2E   85   0.630   0.262  -2.827
    1NGb    H2F   86   0.799   0.160  -2.697
    1NGb    H2G   87   0.979   0.302  -2.593
    1NGb    H2H   88   0.969   0.553  -2.635
    1NGb    H2I   89   0.318   0.879  -2.309
    1NGb    H2J   90   0.433   0.986  -2.382
    1NGb    H2K   91   0.483   1.188  -2.266
    1NGb    H2M   92   0.558   1.096  -2.138
    1NGb    H2N   93   0.438   1.202  -2.089
    1NGb    H2O   94   0.145   1.014  -2.239
    1NGb    H2P   95   0.241   1.149  -2.306
    1NGb    H2Q   96   0.200   1.152  -2.137
    1NGb    H2R   97   0.264   0.881  -2.076
    1NGb    H2S   98   0.314   1.015  -1.971
    1NGb    H2T   99   0.389   0.757  -1.652
    1NGb    H2U  100   0.407   0.737  -1.408
    1NGb    C00    1   1.405   0.844  -1.212
    1NGb    N01    2   1.375   0.716  -1.272
    1NGb    C02    3   1.272   0.653  -1.190
    1NGb    C03    4   1.329   0.600  -1.056
    1NGb    O04    5   1.226   0.518  -1.003
    1NGb    C05    6   1.249   0.466  -0.878
    1NGb    C06    7   1.372   0.483  -0.812
    1NGb    C07    8   1.393   0.422  -0.688
    1NGb    C08    9   1.292   0.344  -0.630
    1NGb    C09   10   1.314   0.283  -0.497
    1NGb    C0A   11   1.401   0.341  -0.403
    1NGb    C0B   12   1.420   0.284  -0.276
    1NGb    C0C   13   1.356   0.164  -0.243
    1NGb    DUM   14   1.378   0.100  -0.123
    1NGb    C0E   15   1.269   0.105  -0.336
    1NGb    C0F   16   1.247   0.166  -0.460
    1NGb    C0G   17   1.170   0.326  -0.695
    1NGb    C0H   18   1.149   0.389  -0.818
    1NGb    C0I   19   1.363   0.723  -1.406
    1NGb    C0J   20   1.480   0.728  -1.490
    1NGb    C0K   21   1.465   0.756  -1.623
    1NGb    C0M   22   1.343   0.766  -1.683
    1NGb    C0N   23   1.334   0.777  -1.828
    1NGb    C0O   24   1.236   0.850  -1.882
    1NGb    C0P   25   1.202   0.865  -2.015
    1NGb    C0Q   26   1.288   0.822  -2.108
    1NGb    C0R   27   1.264   0.841  -2.238
    1NGb    C0S   28   1.359   0.795  -2.335
    1NGb    C0T   29   1.344   0.797  -2.465
    1NGb    C0U   30   1.438   0.747  -2.553
    1NGb    C0V   31   1.442   0.752  -2.704
    1NGb    C0W   32   1.346   0.806  -2.777
    1NGb    C0X   33   1.233   0.879  -2.725
    1NGb    N0Y   34   1.125   0.925  -2.707
    1NGb    C0Z   35   1.379   0.785  -2.906
    1NGb    C10   36   1.326   0.833  -3.025
    1NGb    C11   37   1.205   0.900  -3.029
    1NGb    N12   38   1.102   0.963  -3.041
    1NGb    C13   39   1.378   0.780  -3.148
    1NGb    N14   40   1.432   0.758  -3.254
    1NGb    O15   41   1.496   0.715  -2.915
    1NGb    C16   42   1.549   0.683  -2.782
    1NGb    C17   43   1.545   0.535  -2.754
    1NGb    C18   44   1.447   0.459  -2.809
    1NGb    C19   45   1.446   0.328  -2.787
    1NGb    C1A   46   1.542   0.267  -2.714
    1NGb    C1B   47   1.641   0.342  -2.655
    1NGb    C1C   48   1.639   0.480  -2.670
    1NGb    C1D   49   1.681   0.761  -2.770
    1NGb    F1E   50   1.655   0.889  -2.823
    1NGb    F1F   51   1.727   0.779  -2.642
    1NGb    F1G   52   1.769   0.703  -2.839
    1NGb    C1H   53   1.149   0.935  -2.289
    1NGb    C1I   54   1.105   1.027  -2.181
    1NGb    C1J   55   1.202   1.136  -2.172
    1NGb    C1K   56   0.966   1.086  -2.220
    1NGb    C1M   57   1.084   0.953  -2.056
    1NGb    C1N   58   1.226   0.751  -1.607
    1NGb    C1O   59   1.238   0.738  -1.465
    1NGb    H1P   60   1.494   0.885  -1.259
    1NGb    H1Q   61   1.416   0.846  -1.104
    1NGb    H1R   62   1.321   0.913  -1.231
    1NGb    H1S   63   1.230   0.566  -1.242
    1NGb    H1T   64   1.187   0.719  -1.170
    1NGb    H1U   65   1.352   0.678  -0.985
    1NGb    H1V   66   1.416   0.538  -1.076
    1NGb    H1W   67   1.455   0.540  -0.852
    1NGb    H1X   68   1.488   0.434  -0.641
    1NGb    H1Y   69   1.452   0.433  -0.425
    1NGb    H1Z   70   1.488   0.331  -0.207
    1NGb    DUM   71   1.420   0.154  -0.058
    1NGb    H21   72   1.217   0.015  -0.311
    1NGb    H22   73   1.180   0.116  -0.529
    1NGb    H23   74   1.088   0.271  -0.653
    1NGb    H24   75   1.055   0.379  -0.872
    1NGb    H25   76   1.577   0.720  -1.443
    1NGb    H26   77   1.554   0.759  -1.686
    1NGb    H27   78   1.402   0.715  -1.886
    1NGb    H28   79   1.171   0.901  -1.815
    1NGb    H29   80   1.381   0.776  -2.086
    1NGb    H2A   81   1.450   0.752  -2.294
    1NGb    H2B   82   1.253   0.844  -2.496
    1NGb    H2C   83   1.513   0.693  -2.497
    1NGb    H2D   84   1.372   0.500  -2.875
    1NGb    H2E   85   1.370   0.262  -2.827
    1NGb    H2F   86   1.539   0.160  -2.697
    1NGb    H2G   87   1.719   0.302  -2.593
    1NGb    H2H   88   1.709   0.553  -2.635
    1NGb    H2I   89   1.058   0.879  -2.309
    1NGb    H2J   90   1.173   0.986  -2.382
    1NGb    H2K   91   1.223   1.188  -2.266
    1NGb    H2M   92   1.298   1.096  -2.138
    1NGb    H2N   93   1.178   1.202  -2.089
    1NGb    H2O   94   0.885   1.014  -2.239
    1NGb    H2P   95   0.981   1.149  -2.306
    1NGb    H2Q   96   0.940   1.152  -2.137
    1NGb    H2R   97   1.004   0.881  -2.076
    1NGb    H2S   98   1.054   1.015  -1.971
    1NGb    H2T   99   1.129   0.757  -1.652
    1NGb    H2U  100   1.147   0.737  -1.408
    1NGb    C00    1   2.145   0.844  -1.212
    1NGb    N01    2   2.115   0.716  -1.272
    1NGb    C02    3   2.012   0.653  -1.190
    1NGb    C03    4   2.069   0.600  -1.056
    1NGb    O04    5   1.966   0.518  -1.003
    1NGb    C05    6   1.989   0.466  -0.878
    1NGb    C06    7   2.112   0.483  -0.812
    1NGb    C07    8   2.133   0.422  -0.688
    1NGb    C08    9   2.032   0.344  -0.630
    1NGb    C09   10   2.054   0.283  -0.497
    1NGb    C0A   11   2.141   0.341  -0.403
    1NGb    C0B   12   2.160   0.284  -0.276
    1NGb    C0C   13   2.096   0.164  -0.243
    1NGb    DUM   14   2.118   0.100  -0.123
    1NGb    C0E   15   2.009   0.105  -0.336
    1NGb    C0F   16   1.987   0.166  -0.460
    1NGb    C0G   17   1.910   0.326  -0.695
    1NGb    C0H   18   1.889   0.389  -0.818
    1NGb    C0I   19   2.103   0.723  -1.406
    1NGb    C0J   20   2.220   0.728  -1.490
    1NGb    C0K   21   2.205   0.756  -1.623
    1NGb    C0M   22   2.083   0.766  -1.683
    1NGb    C0N   23   2.074   0.777  -1.828
    1NGb    C0O   24   1.976   0.850  -1.882
    1NGb    C0P   25   1.942   0.865  -2.015
    1NGb    C0Q   26   2.028   0.822  -2.108
    1NGb    C0R   27   2.004   0.841  -2.238
    1NGb    C0S   28   2.099   0.795  -2.335
    1NGb    C0T   29   2.084   0.797  -2.465
    1NGb    C0U   30   2.178   0.747  -2.553
    1NGb    C0V   31   2.182   0.752  -2.704
    1NGb    C0W   32   2.086   0.806  -2.777
    1NGb    C0X   33   1.973   0.879  -2.725
    1NGb    N0Y   34   1.865   0.925  -2.707
    1NGb    C0Z   35   2.119   0.785  -2.906
    1NGb    C10   36   2.066   0.833  -3.025
    1NGb    C11   37   1.945   0.900  -3.029
    1NGb    N12   38   1.842   0.963  -3.041
    1NGb    C13   39   2.118   0.780  -3.148
    1NGb    N14   40   2.172   0.758  -3.254
    1NGb    O15   41   2.236   0.715  -2.915
    1NGb    C16   42   2.289   0.683  -2.782
    1NGb    C17   43   2.285   0.535  -2.754
    1NGb    C18   44   2.187   0.459  -2.809
    1NGb    C19   45   2.186   0.328  -2.787
    1NGb    C1A   46   2.282   0.267  -2.714
    1NGb    C1B   47   2.381   0.342  -2.655
    1NGb    C1C   48   2.379   0.480  -2.670
    1NGb    C1D   49   2.421   0.761  -2.770
    1NGb    F1E   50   2.395   0.889  -2.823
    1NGb    F1F   51   2.467   0.779  -2.642
    1NGb    F1G   52   2.509   0.703  -2.839
    1NGb    C1H   53   1.889   0.935  -2.289
    1NGb    C1I   54   1.845   1.027  -2.181
    1NGb    C1J   55   1.942   1.136  -2.172
    1NGb    C1K   56   1.706   1.086  -2.220
    1NGb    C1M   57   1.824   0.953  -2.056
    1NGb    C1N   58   1.966   0.751  -1.607
    1NGb    C1O   59   1.978   0.738  -1.465
    1NGb    H1P   60   2.234   0.885  -1.259
    1NGb    H1Q   61   2.156   0.846  -1.104
    1NGb    H1R   62   2.061   0.913  -1.231
    1NGb    H1S   63   1.970   0.566  -1.242
    1NGb    H1T   64   1.927   0.719  -1.170
    1NGb    H1U   65   2.092   0.678  -0.985
    1NGb    H1V   66   2.156   0.538  -1.076
    1NGb    H1W   67   2.195   0.540  -0.852
    1NGb    H1X   68   2.228   0.434  -0.641
    1NGb    H1Y   69   2.192   0.433  -0.425
    1NGb    H1Z   70   2.228   0.331  -0.207
    1NGb    DUM   71   2.160   0.154  -0.058
    1NGb    H21   72   1.957   0.015  -0.311
    1NGb    H22   73   1.920   0.116  -0.529
    1NGb    H23   74   1.828   0.271  -0.653
    1NGb    H24   75   1.795   0.379  -0.872
    1NGb    H25   76   2.317   0.720  -1.443
    1NGb    H26   77   2.294   0.759  -1.686
    1NGb    H27   78   2.142   0.715  -1.886
    1NGb    H28   79   1.911   0.901  -1.815
    1NGb    H29   80   2.121   0.776  -2.086
    1NGb    H2A   81   2.190   0.752  -2.294
    1NGb    H2B   82   1.993   0.844  -2.496
    1NGb    H2C   83   2.253   0.693  -2.497
    1NGb    H2D   84   2.112   0.500  -2.875
    1NGb    H2E   85   2.110   0.262  -2.827
    1NGb    H2F   86   2.279   0.160  -2.697
    1NGb    H2G   87   2.459   0.302  -2.593
    1NGb    H2H   88   2.449   0.553  -2.635
    1NGb    H2I   89   1.798   0.879  -2.309
    1NGb    H2J   90   1.913   0.986  -2.382
    1NGb    H2K   91   1.963   1.188  -2.266
    1NGb    H2M   92   2.038   1.096  -2.138
    1NGb    H2N   93   1.918   1.202  -2.089
    1NGb    H2O   94   1.625   1.014  -2.239
    1NGb    H2P   95   1.721   1.149  -2.306
    1NGb    H2Q   96   1.680   1.152  -2.137
    1NGb    H2R   97   1.744   0.881  -2.076
    1NGb    H2S   98   1.794   1.015  -1.971
    1NGb    H2T   99   1.869   0.757  -1.652
    1NGb    H2U  100   1.887   0.737  -1.408
    1NGb    C00    1   2.884   0.844  -1.212
    1NGb    N01    2   2.854   0.716  -1.272
    1NGb    C02    3   2.751   0.653  -1.190
    1NGb    C03    4   2.808   0.600  -1.056
    1NGb    O04    5   2.705   0.518  -1.003
    1NGb    C05    6   2.728   0.466  -0.878
    1NGb    C06    7   2.851   0.483  -0.812
    1NGb    C07    8   2.872   0.422  -0.688
    1NGb    C08    9   2.771   0.344  -0.630
    1NGb    C09   10   2.793   0.283  -0.497
    1NGb    C0A   11   2.880   0.341  -0.403
    1NGb    C0B   12   2.899   0.284  -0.276
    1NGb    C0C   13   2.835   0.164  -0.243
    1NGb    DUM   14   2.857   0.100  -0.123
    1NGb    C0E   15   2.748   0.105  -0.336
    1NGb    C0F   16   2.726   0.166  -0.460
    1NGb    C0G   17   2.649   0.326  -0.695
    1NGb    C0H   18   2.628   0.389  -0.818
    1NGb    C0I   19   2.842   0.723  -1.406
    1NGb    C0J   20   2.959   0.728  -1.490
    1NGb    C0K   21   2.944   0.756  -1.623
    1NGb    C0M   22   2.822   0.766  -1.683
    1NGb    C0N   23   2.813   0.777  -1.828
    1NGb    C0O   24   2.715   0.850  -1.882
    1NGb    C0P   25   2.681   0.865  -2.015
    1NGb    C0Q   26   2.767   0.822  -2.108
    1NGb    C0R   27   2.743   0.841  -2.238
    1NGb    C0S   28   2.838   0.795  -2.335
    1NGb    C0T   29   2.823   0.797  -2.465
    1NGb    C0U   30   2.917   0.747  -2.553
    1NGb    C0V   31   2.921   0.752  -2.704
    1NGb    C0W   32   2.825   0.806  -2.777
    1NGb    C0X   33   2.712   0.879  -2.725
    1NGb    N0Y   34   2.604   0.925  -2.707
    1NGb    C0Z   35   2.858   0.785  -2.906
    1NGb    C10   36   2.805   0.833  -3.025
    1NGb    C11   37   2.684   0.900  -3.029
    1NGb    N12   38   2.581   0.963  -3.041
    1NGb    C13   39   2.857   0.780  -3.148
    1NGb    N14   40   2.911   0.758  -3.254
    1NGb    O15   41   2.975   0.715  -2.915
    1NGb    C16   42   3.028   0.683  -2.782
    1NGb    C17   43   3.024   0.535  -2.754
    1NGb    C18   44   2.926   0.459  -2.809
    1NGb    C19   45   2.925   0.328  -2.787
    1NGb    C1A   46   3.021   0.267  -2.714
    1NGb    C1B   47   3.120   0.342  -2.655
    1NGb    C1C   48   3.118   0.480  -2.670
    1NGb    C1D   49   3.160   0.761  -2.770
    1NGb    F1E   50   3.134   0.889  -2.823
    1NGb    F1F   51   3.206   0.779  -2.642
    1NGb    F1G   52   3.248   0.703  -2.839
    1NGb    C1H   53   2.628   0.935  -2.289
    1NGb    C1I   54   2.584   1.027  -2.181
    1NGb    C1J   55   2.681   1.136  -2.172
    1NGb    C1K   56   2.445   1.086  -2.220
    1NGb    C1M   57   2.563   0.953  -2.056
    1NGb    C1N   58   2.705   0.751  -1.607
    1NGb    C1O   59   2.717   0.738  -1.465
    1NGb    H1P   60   2.973   0.885  -1.259
    1NGb    H1Q   61   2.895   0.846  -1.104
    1NGb    H1R   62   2.800   0.913  -1.231
    1NGb    H1S   63   2.709   0.566  -1.242
    1NGb    H1T   64   2.666   0.719  -1.170
    1NGb    H1U   65   2.831   0.678  -0.985
    1NGb    H1V   66   2.895   0.538  -1.076
    1NGb    H1W   67   2.934   0.540  -0.852
    1NGb    H1X   68   2.967   0.434  -0.641
    1NGb    H1Y   69   2.931   0.433  -0.425
    1NGb    H1Z   70   2.967   0.331  -0.207
    1NGb    DUM   71   2.899   0.154  -0.058
    1NGb    H21   72   2.696   0.015  -0.311
    1NGb    H22   73   2.659   0.116  -0.529
    1NGb    H23   74   2.567   0.271  -0.653
    1NGb    H24   75   2.534   0.379  -0.872
    1NGb    H25   76   3.056   0.720  -1.443
    1NGb    H26   77   3.033   0.759  -1.686
    1NGb    H27   78   2.881   0.715  -1.886
    1NGb    H28   79   2.650   0.901  -1.815
    1NGb    H29   80   2.860   0.776  -2.086
    1NGb    H2A   81   2.929   0.752  -2.294
    1NGb    H2B   82   2.732   0.844  -2.496
    1NGb    H2C   83   2.992   0.693  -2.497
    1NGb    H2D   84   2.851   0.500  -2.875
    1NGb    H2E   85   2.849   0.262  -2.827
    1NGb    H2F   86   3.018   0.160  -2.697
    1NGb    H2G   87   3.198   0.302  -2.593
    1NGb    H2H   88   3.188   0.553  -2.635
    1NGb    H2I   89   2.537   0.879  -2.309
    1NGb    H2J   90   2.652   0.986  -2.382
    1NGb    H2K   91   2.702   1.188  -2.266
    1NGb    H2M   92   2.777   1.096  -2.138
    1NGb    H2N   93   2.657   1.202  -2.089
    1NGb    H2O   94   2.364   1.014  -2.239
    1NGb    H2P   95   2.460   1.149  -2.306
    1NGb    H2Q   96   2.419   1.152  -2.137
    1NGb    H2R   97   2.483   0.881  -2.076
    1NGb    H2S   98   2.533   1.015  -1.971
    1NGb    H2T   99   2.608   0.757  -1.652
    1NGb    H2U  100   2.626   0.737  -1.408
    1NGb    C00    1   3.624   0.844  -1.212
    1NGb    N01    2   3.594   0.716  -1.272
    1NGb    C02    3   3.491   0.653  -1.190
    1NGb    C03    4   3.548   0.600  -1.056
    1NGb    O04    5   3.445   0.518  -1.003
    1NGb    C05    6   3.468   0.466  -0.878
    1NGb    C06    7   3.591   0.483  -0.812
    1NGb    C07    8   3.612   0.422  -0.688
    1NGb    C08    9   3.511   0.344  -0.630
    1NGb    C09   10   3.533   0.283  -0.497
    1NGb    C0A   11   3.620   0.341  -0.403
    1NGb    C0B   12   3.639   0.284  -0.276
    1NGb    C0C   13   3.575   0.164  -0.243
    1NGb    DUM   14   3.597   0.100  -0.123
    1NGb    C0E   15   3.488   0.105  -0.336
    1NGb    C0F   16   3.466   0.166  -0.460
    1NGb    C0G   17   3.389   0.326  -0.695
    1NGb    C0H   18   3.368   0.389  -0.818
    1NGb    C0I   19   3.582   0.723  -1.406
    1NGb    C0J   20   3.699   0.728  -1.490
    1NGb    C0K   21   3.684   0.756  -1.623
    1NGb    C0M   22   3.562   0.766  -1.683
    1NGb    C0N   23   3.553   0.777  -1.828
    1NGb    C0O   24   3.455   0.850  -1.882
    1NGb    C0P   25   3.421   0.865  -2.015
    1NGb    C0Q   26   3.507   0.822  -2.108
    1NGb    C0R   27   3.483   0.841  -2.238
    1NGb    C0S   28   3.578   0.795  -2.335
    1NGb    C0T   29   3.563   0.797  -2.465
    1NGb    C0U   30   3.657   0.747  -2.553
    1NGb    C0V   31   3.661   0.752  -2.704
    1NGb    C0W   32   3.565   0.806  -2.777
    1NGb    C0X   33   3.452   0.879  -2.725
    1NGb    N0Y   34   3.344   0.925  -2.707
    1NGb    C0Z   35   3.598   0.785  -2.906
    1NGb    C10   36   3.545   0.833  -3.025
    1NGb    C11   37   3.424   0.900  -3.029
    1NGb    N12   38   3.321   0.963  -3.041
    1NGb    C13   39   3.597   0.780  -3.148
    1NGb    N14   40   3.651   0.758  -3.254
    1NGb    O15   41   3.715   0.715  -2.915
    1NGb    C16   42   3.768   0.683  -2.782
    1NGb    C17   43   3.764   0.535  -2.754
    1NGb    C18   44   3.666   0.459  -2.809
    1NGb    C19   45   3.665   0.328  -2.787
    1NGb    C1A   46   3.761   0.267  -2.714
    1NGb    C1B   47   3.860   0.342  -2.655
    1NGb    C1C   48   3.858   0.480  -2.670
    1NGb    C1D   49   3.900   0.761  -2.770
    1NGb    F1E   50   3.874   0.889  -2.823
    1NGb    F1F   51   3.946   0.779  -2.642
    1NGb    F1G   52   3.988   0.703  -2.839
    1NGb    C1H   53   3.368   0.935  -2.289
    1NGb    C1I   54   3.324   1.027  -2.181
    1NGb    C1J   55   3.421   1.136  -2.172
    1NGb    C1K   56   3.185   1.086  -2.220
    1NGb    C1M   57   3.303   0.953  -2.056
    1NGb    C1N   58   3.445   0.751  -1.607
    1NGb    C1O   59   3.457   0.738  -1.465
    1NGb    H1P   60   3.713   0.885  -1.259
    1NGb    H1Q   61   3.635   0.846  -1.104
    1NGb    H1R   62   3.540   0.913  -1.231
    1NGb    H1S   63   3.449   0.566  -1.242
    1NGb    H1T   64   3.406   0.719  -1.170
    1NGb    H1U   65   3.571   0.678  -0.985
    1NGb    H1V   66   3.635   0.538  -1.076
    1NGb    H1W   67   3.674   0.540  -0.852
    1NGb    H1X   68   3.707   0.434  -0.641
    1NGb    H1Y   69   3.671   0.433  -0.425
    1NGb    H1Z   70   3.707   0.331  -0.207
    1NGb    DUM   71   3.639   0.154  -0.058
    1NGb    H21   72   3.436   0.015  -0.311
    1NGb    H22   73   3.399   0.116  -0.529
    1NGb    H23   74   3.307   0.271  -0.653
    1NGb    H24   75   3.274   0.379  -0.872
    1NGb    H25   76   3.796   0.720  -1.443
    1NGb    H26   77   3.773   0.759  -1.686
    1NGb    H27   78   3.621   0.715  -1.886
    1NGb    H28   79   3.390   0.901  -1.815
    1NGb    H29   80   3.600   0.776  -2.086
    1NGb    H2A   81   3.669   0.752  -2.294
    1NGb    H2B   82   3.472   0.844  -2.496
    1NGb    H2C   83   3.732   0.693  -2.497
    1NGb    H2D   84   3.591   0.500  -2.875
    1NGb    H2E   85   3.589   0.262  -2.827
    1NGb    H2F   86   3.758   0.160  -2.697
    1NGb    H2G   87   3.938   0.302  -2.593
    1NGb    H2H   88   3.928   0.553  -2.635
    1NGb    H2I   89   3.277   0.879  -2.309
    1NGb    H2J   90   3.392   0.986  -2.382
    1NGb    H2K   91   3.442   1.188  -2.266
    1NGb    H2M   92   3.517   1.096  -2.138
    1NGb    H2N   93   3.397   1.202  -2.089
    1NGb    H2O   94   3.104   1.014  -2.239
    1NGb    H2P   95   3.200   1.149  -2.306
    1NGb    H2Q   96   3.159   1.152  -2.137
    1NGb    H2R   97   3.223   0.881  -2.076
    1NGb    H2S   98   3.273   1.015  -1.971
    1NGb    H2T   99   3.348   0.757  -1.652
    1NGb    H2U  100   3.366   0.737  -1.408
    1NGb    C00    1   4.364   0.844  -1.212
    1NGb    N01    2   4.334   0.716  -1.272
    1NGb    C02    3   4.231   0.653  -1.190
    1NGb    C03    4   4.288   0.600  -1.056
    1NGb    O04    5   4.185   0.518  -1.003
    1NGb    C05    6   4.208   0.466  -0.878
    1NGb    C06    7   4.331   0.483  -0.812
    1NGb    C07    8   4.352   0.422  -0.688
    1NGb    C08    9   4.251   0.344  -0.630
    1NGb    C09   10   4.273   0.283  -0.497
    1NGb    C0A   11   4.360   0.341  -0.403
    1NGb    C0B   12   4.379   0.284  -0.276
    1NGb    C0C   13   4.315   0.164  -0.243
    1NGb    DUM   14   4.337   0.100  -0.123
    1NGb    C0E   15   4.228   0.105  -0.336
    1NGb    C0F   16   4.206   0.166  -0.460
    1NGb    C0G   17   4.129   0.326  -0.695
    1NGb    C0H   18   4.108   0.389  -0.818
    1NGb    C0I   19   4.322   0.723  -1.406
    1NGb    C0J   20   4.439   0.728  -1.490
    1NGb    C0K   21   4.424   0.756  -1.623
    1NGb    C0M   22   4.302   0.766  -1.683
    1NGb    C0N   23   4.293   0.777  -1.828
    1NGb    C0O   24   4.195   0.850  -1.882
    1NGb    C0P   25   4.161   0.865  -2.015
    1NGb    C0Q   26   4.247   0.822  -2.108
    1NGb    C0R   27   4.223   0.841  -2.238
    1NGb    C0S   28   4.318   0.795  -2.335
    1NGb    C0T   29   4.303   0.797  -2.465
    1NGb    C0U   30   4.397   0.747  -2.553
    1NGb    C0V   31   4.401   0.752  -2.704
    1NGb    C0W   32   4.305   0.806  -2.777
    1NGb    C0X   33   4.192   0.879  -2.725
    1NGb    N0Y   34   4.084   0.925  -2.707
    1NGb    C0Z   35   4.338   0.785  -2.906
    1NGb    C10   36   4.285   0.833  -3.025
    1NGb    C11   37   4.164   0.900  -3.029
    1NGb    N12   38   4.061   0.963  -3.041
    1NGb    C13   39   4.337   0.780  -3.148
    1NGb    N14   40   4.391   0.758  -3.254
    1NGb    O15   41   4.455   0.715  -2.915
    1NGb    C16   42   4.508   0.683  -2.782
    1NGb    C17   43   4.504   0.535  -2.754
    1NGb    C18   44   4.406   0.459  -2.809
    1NGb    C19   45   4.405   0.328  -2.787
    1NGb    C1A   46   4.501   0.267  -2.714
    1NGb    C1B   47   4.600   0.342  -2.655
    1NGb    C1C   48   4.598   0.480  -2.670
    1NGb    C1D   49   4.640   0.761  -2.770
    1NGb    F1E   50   4.614   0.889  -2.823
    1NGb    F1F   51   4.686   0.779  -2.642
    1NGb    F1G   52   4.728   0.703  -2.839
    1NGb    C1H   53   4.108   0.935  -2.289
    1NGb    C1I   54   4.064   1.027  -2.181
    1NGb    C1J   55   4.161   1.136  -2.172
    1NGb    C1K   56   3.925   1.086  -2.220
    1NGb    C1M   57   4.043   0.953  -2.056
    1NGb    C1N   58   4.185   0.751  -1.607
    1NGb    C1O   59   4.197   0.738  -1.465
    1NGb    H1P   60   4.453   0.885  -1.259
    1NGb    H1Q   61   4.375   0.846  -1.104
    1NGb    H1R   62   4.280   0.913  -1.231
    1NGb    H1S   63   4.189   0.566  -1.242
    1NGb    H1T   64   4.146   0.719  -1.170
    1NGb    H1U   65   4.311   0.678  -0.985
    1NGb    H1V   66   4.375   0.538  -1.076
    1NGb    H1W   67   4.414   0.540  -0.852
    1NGb    H1X   68   4.447   0.434  -0.641
    1NGb    H1Y   69   4.411   0.433  -0.425
    1NGb    H1Z   70   4.447   0.331  -0.207
    1NGb    DUM   71   4.379   0.154  -0.058
    1NGb    H21   72   4.176   0.015  -0.311
    1NGb    H22   73   4.139   0.116  -0.529
    1NGb    H23   74   4.047   0.271  -0.653
    1NGb    H24   75   4.014   0.379  -0.872
    1NGb    H25   76   4.536   0.720  -1.443
    1NGb    H26   77   4.513   0.759  -1.686
    1NGb    H27   78   4.361   0.715  -1.886
    1NGb    H28   79   4.130   0.901  -1.815
    1NGb    H29   80   4.340   0.776  -2.086
    1NGb    H2A   81   4.409   0.752  -2.294
    1NGb    H2B   82   4.212   0.844  -2.496
    1NGb    H2C   83   4.472   0.693  -2.497
    1NGb    H2D   84   4.331   0.500  -2.875
    1NGb    H2E   85   4.329   0.262  -2.827
    1NGb    H2F   86   4.498   0.160  -2.697
    1NGb    H2G   87   4.678   0.302  -2.593
    1NGb    H2H   88   4.668   0.553  -2.635
    1NGb    H2I   89   4.017   0.879  -2.309
    1NGb    H2J   90   4.132   0.986  -2.382
    1NGb    H2K   91   4.182   1.188  -2.266
    1NGb    H2M   92   4.257   1.096  -2.138
    1NGb    H2N   93   4.137   1.202  -2.089
    1NGb    H2O   94   3.844   1.014  -2.239
    1NGb    H2P   95   3.940   1.149  -2.306
    1NGb    H2Q   96   3.899   1.152  -2.137
    1NGb    H2R   97   3.963   0.881  -2.076
    1NGb    H2S   98   4.013   1.015  -1.971
    1NGb    H2T   99   4.088   0.757  -1.652
    1NGb    H2U  100   4.106   0.737  -1.408
    1NGb    C00    1   5.104   0.844  -1.212
    1NGb    N01    2   5.074   0.716  -1.272
    1NGb    C02    3   4.971   0.653  -1.190
    1NGb    C03    4   5.028   0.600  -1.056
    1NGb    O04    5   4.925   0.518  -1.003
    1NGb    C05    6   4.948   0.466  -0.878
    1NGb    C06    7   5.071   0.483  -0.812
    1NGb    C07    8   5.092   0.422  -0.688
    1NGb    C08    9   4.991   0.344  -0.630
    1NGb    C09   10   5.013   0.283  -0.497
    1NGb    C0A   11   5.100   0.341  -0.403
    1NGb    C0B   12   5.119   0.284  -0.276
    1NGb    C0C   13   5.055   0.164  -0.243
    1NGb    DUM   14   5.077   0.100  -0.123
    1NGb    C0E   15   4.968   0.105  -0.336
    1NGb    C0F   16   4.946   0.166  -0.460
    1NGb    C0G   17   4.869   0.326  -0.695
    1NGb    C0H   18   4.848   0.389  -0.818
    1NGb    C0I   19   5.062   0.723  -1.406
    1NGb    C0J   20   5.179   0.728  -1.490
    1NGb    C0K   21   5.164   0.756  -1.623
    1NGb    C0M   22   5.042   0.766  -1.683
    1NGb    C0N   23   5.033   0.777  -1.828
    1NGb    C0O   24   4.935   0.850  -1.882
    1NGb    C0P   25   4.901   0.865  -2.015
    1NGb    C0Q   26   4.987   0.822  -2.108
    1NGb    C0R   27   4.963   0.841  -2.238
    1NGb    C0S   28   5.058   0.795  -2.335
    1NGb    C0T   29   5.043   0.797  -2.465
    1NGb    C0U   30   5.137   0.747  -2.553
    1NGb    C0V   31   5.141   0.752  -2.704
    1NGb    C0W   32   5.045   0.806  -2.777
    1NGb    C0X   33   4.932   0.879  -2.725
    1NGb    N0Y   34   4.824   0.925  -2.707
    1NGb    C0Z   35   5.078   0.785  -2.906
    1NGb    C10   36   5.025   0.833  -3.025
    1NGb    C11   37   4.904   0.900  -3.029
    1NGb    N12   38   4.801   0.963  -3.041
    1NGb    C13   39   5.077   0.780  -3.148
    1NGb    N14   40   5.131   0.758  -3.254
    1NGb    O15   41   5.195   0.715  -2.915
    1NGb    C16   42   5.248   0.683  -2.782
    1NGb    C17   43   5.244   0.535  -2.754
    1NGb    C18   44   5.146   0.459  -2.809
    1NGb    C19   45   5.145   0.328  -2.787
    1NGb    C1A   46   5.241   0.267  -2.714
    1NGb    C1B   47   5.340   0.342  -2.655
    1NGb    C1C   48   5.338   0.480  -2.670
    1NGb    C1D   49   5.380   0.761  -2.770
    1NGb    F1E   50   5.354   0.889  -2.823
    1NGb    F1F   51   5.426   0.779  -2.642
    1NGb    F1G   52   5.468   0.703  -2.839
    1NGb    C1H   53   4.848   0.935  -2.289
    1NGb    C1I   54   4.804   1.027  -2.181
    1NGb    C1J   55   4.901   1.136  -2.172
    1NGb    C1K   56   4.665   1.086  -2.220
    1NGb    C1M   57   4.783   0.953  -2.056
    1NGb    C1N   58   4.925   0.751  -1.607
    1NGb    C1O   59   4.937   0.738  -1.465
    1NGb    H1P   60   5.193   0.885  -1.259
    1NGb    H1Q   61   5.115   0.846  -1.104
    1NGb    H1R   62   5.020   0.913  -1.231
    1NGb    H1S   63   4.929   0.566  -1.242
    1NGb    H1T   64   4.886   0.719  -1.170
    1NGb    H1U   65   5.051   0.678  -0.985
    1NGb    H1V   66   5.115   0.538  -1.076
    1NGb    H1W   67   5.154   0.540  -0.852
    1NGb    H1X   68   5.187   0.434  -0.641
    1NGb    H1Y   69   5.151   0.433  -0.425
    1NGb    H1Z   70   5.187   0.331  -0.207
    1NGb    DUM   71   5.119   0.154  -0.058
    1NGb    H21   72   4.916   0.015  -0.311
    1NGb    H22   73   4.879   0.116  -0.529
    1NGb    H23   74   4.787   0.271  -0.653
    1NGb    H24   75   4.754   0.379  -0.872
    1NGb    H25   76   5.276   0.720  -1.443
    1NGb    H26   77   5.253   0.759  -1.686
    1NGb    H27   78   5.101   0.715  -1.886
    1NGb    H28   79   4.870   0.901  -1.815
    1NGb    H29   80   5.080   0.776  -2.086
    1NGb    H2A   81   5.149   0.752  -2.294
    1NGb    H2B   82   4.952   0.844  -2.496
    1NGb    H2C   83   5.212   0.693  -2.497
    1NGb    H2D   84   5.071   0.500  -2.875
    1NGb    H2E   85   5.069   0.262  -2.827
    1NGb    H2F   86   5.238   0.160  -2.697
    1NGb    H2G   87   5.418   0.302  -2.593
    1NGb    H2H   88   5.408   0.553  -2.635
    1NGb    H2I   89   4.757   0.879  -2.309
    1NGb    H2J   90   4.872   0.986  -2.382
    1NGb    H2K   91   4.922   1.188  -2.266
    1NGb    H2M   92   4.997   1.096  -2.138
    1NGb    H2N   93   4.877   1.202  -2.089
    1NGb    H2O   94   4.584   1.014  -2.239
    1NGb    H2P   95   4.680   1.149  -2.306
    1NGb    H2Q   96   4.639   1.152  -2.137
    1NGb    H2R   97   4.703   0.881  -2.076
    1NGb    H2S   98   4.753   1.015  -1.971
    1NGb    H2T   99   4.828   0.757  -1.652
    1NGb    H2U  100   4.846   0.737  -1.408
    1NGb    C00    1  -0.075   1.584  -1.212
    1NGb    N01    2  -0.105   1.456  -1.272
    1NGb    C02    3  -0.208   1.393  -1.190
    1NGb    C03    4  -0.151   1.340  -1.056
    1NGb    O04    5  -0.254   1.258  -1.003
    1NGb    C05    6  -0.231   1.206  -0.878
    1NGb    C06    7  -0.108   1.223  -0.812
    1NGb    C07    8  -0.087   1.162  -0.688
    1NGb    C08    9  -0.188   1.084  -0.630
    1NGb    C09   10  -0.166   1.023  -0.497
    1NGb    C0A   11  -0.079   1.081  -0.403
    1NGb    C0B   12  -0.060   1.024  -0.276
    1NGb    C0C   13  -0.124   0.904  -0.243
    1NGb    DUM   14  -0.102   0.840  -0.123
    1NGb    C0E   15  -0.211   0.845  -0.336
    1NGb    C0F   16  -0.233   0.906  -0.460
    1NGb    C0G   17  -0.310   1.066  -0.695
    1NGb    C0H   18  -0.331   1.129  -0.818
    1NGb    C0I   19  -0.117   1.463  -1.406
    1NGb    C0J   20   0.000   1.468  -1.490
    1NGb    C0K   21  -0.015   1.496  -1.623
    1NGb    C0M   22  -0.137   1.506  -1.683
    1NGb    C0N   23  -0.146   1.517  -1.828
    1NGb    C0O   24  -0.244   1.590  -1.882
    1NGb    C0P   25  -0.278   1.605  -2.015
    1NGb    C0Q   26  -0.192   1.562  -2.108
    1NGb    C0R   27  -0.216   1.581  -2.238
    1NGb    C0S   28  -0.121   1.535  -2.335
    1NGb    C0T   29  -0.136   1.537  -2.465
    1NGb    C0U   30  -0.042   1.487  -2.553
    1NGb    C0V   31  -0.038   1.492  -2.704
    1NGb    C0W   32  -0.134   1.546  -2.777
    1NGb    C0X   33  -0.247   1.619  -2.725
    1NGb    N0Y   34  -0.355   1.665  -2.707
    1NGb    C0Z   35  -0.101   1.525  -2.906
    1NGb    C10   36  -0.154   1.573  -3.025
    1NGb    C11   37  -0.275   1.640  -3.029
    1NGb    N12   38  -0.378   1.703  -3.041
    1NGb    C13   39  -0.102   1.520  -3.148
    1NGb    N14   40  -0.048   1.498  -3.254
    1NGb    O15   41   0.016   1.455  -2.915
    1NGb    C16   42   0.069   1.423  -2.782
    1NGb    C17   43   0.065   1.275  -2.754
    1NGb    C18   44  -0.033   1.199  -2.809
    1NGb    C19   45  -0.034   1.068  -2.787
    1NGb    C1A   46   0.062   1.007  -2.714
    1NGb    C1B   47   0.161   1.082  -2.655
    1NGb    C1C   48   0.159   1.220  -2.670
    1NGb    C1D   49   0.201   1.501  -2.770
    1NGb    F1E   50   0.175   1.629  -2.823
    1NGb    F1F   51   0.247   1.519  -2.642
    1NGb    F1G   52   0.289   1.443  -2.839
    1NGb    C1H   53  -0.331   1.675  -2.289
    1NGb    C1I   54  -0.375   1.767  -2.181
    1NGb    C1J   55  -0.278   1.876  -2.172
    1NGb    C1K   56  -0.514   1.826  -2.220
    1NGb    C1M   57  -0.396   1.693  -2.056
    1NGb    C1N   58  -0.254   1.491  -1.607
    1NGb    C1O   59  -0.242   1.478  -1.465
    1NGb    H1P   60   0.014   1.625  -1.259
    1NGb    H1Q   61  -0.064   1.586  -1.104
    1NGb    H1R   62  -0.159   1.653  -1.231
    1NGb    H1S   63  -0.250   1.306  -1.242
    1NGb    H1T   64  -0.293   1.459  -1.170
    1NGb    H1U   65  -0.128   1.418  -0.985
    1NGb    H1V   66  -0.064   1.278  -1.076
    1NGb    H1W   67  -0.025   1.280  -0.852
    1NGb    H1X   68   0.008   1.174  -0.641
    1NGb    H1Y   69  -0.028   1.173  -0.425
    1NGb    H1Z   70   0.008   1.071  -0.207
    1NGb    DUM   71  -0.060   0.894  -0.058
    1NGb    H21   72  -0.263   0.755  -0.311
    1NGb    H22   73  -0.300   0.856  -0.529
    1NGb    H23   74  -0.392   1.011  -0.653
    1NGb    H24   75  -0.425   1.119  -0.872
    1NGb    H25   76   0.097   1.460  -1.443
    1NGb    H26   77   0.074   1.499  -1.686
    1NGb    H27   78  -0.078   1.455  -1.886
    1NGb    H28   79  -0.309   1.641  -1.815
    1NGb    H29   80  -0.099   1.516  -2.086
    1NGb    H2A   81  -0.030   1.492  -2.294
    1NGb    H2B   82  -0.227   1.584  -2.496
    1NGb    H2C   83   0.033   1.433  -2.497
    1NGb    H2D   84  -0.108   1.240  -2.875
    1NGb    H2E   85  -0.110   1.002  -2.827
    1NGb    H2F   86   0.059   0.900  -2.697
    1NGb    H2G   87   0.239   1.042  -2.593
    1NGb    H2H   88   0.229   1.293  -2.635
    1NGb    H2I   89  -0.422   1.619  -2.309
    1NGb    H2J   90  -0.307   1.726  -2.382
    1NGb    H2K   91  -0.257   1.928  -2.266
    1NGb    H2M   92  -0.182   1.836  -2.138
    1NGb    H2N   93  -0.302   1.942  -2.089
    1NGb    H2O   94  -0.595   1.754  -2.239
    1NGb    H2P   95  -0.499   1.889  -2.306
    1NGb    H2Q   96  -0.540   1.892  -2.137
    1NGb    H2R   97  -0.476   1.621  -2.076
    1NGb    H2S   98  -0.426   1.755  -1.971
    1NGb    H2T   99  -0.351   1.497  -1.652
    1NGb    H2U  100  -0.333   1.477  -1.408
    1NGb    C00    1   0.665   1.584  -1.212
    1NGb    N01    2   0.635   1.456  -1.272
    1NGb    C02    3   0.532   1.393  -1.190
    1NGb    C03    4   0.589   1.340  -1.056
    1NGb    O04    5   0.486   1.258  -1.003
    1NGb    C05    6   0.509   1.206  -0.878
    1NGb    C06    7   0.632   1.223  -0.812
    1NGb    C07    8   0.653   1.162  -0.688
    1NGb    C08    9   0.552   1.084  -0.630
    1NGb    C09   10   0.574   1.023  -0.497
    1NGb    C0A   11   0.661   1.081  -0.403
    1NGb    C0B   12   0.680   1.024  -0.276
    1NGb    C0C   13   0.616   0.904  -0.243
    1NGb    DUM   14   0.638   0.840  -0.123
    1NGb    C0E   15   0.529   0.845  -0.336
    1NGb    C0F   16   0.507   0.906  -0.460
    1NGb    C0G   17   0.430   1.066  -0.695
    1NGb    C0H   18   0.409   1.129  -0.818
    1NGb    C0I   19   0.623   1.463  -1.406
    1NGb    C0J   20   0.740   1.468  -1.490
    1NGb    C0K   21   0.725   1.496  -1.623
    1NGb    C0M   22   0.603   1.506  -1.683
    1NGb    C0N   23   0.594   1.517  -1.828
    1NGb    C0O   24   0.496   1.590  -1.882
    1NGb    C0P   25   0.462   1.605  -2.015
    1NGb    C0Q   26   0.548   1.562  -2.108
    1NGb    C0R   27   0.524   1.581  -2.238
    1NGb    C0S   28   0.619   1.535  -2.335
    1NGb    C0T   29   0.604   1.537  -2.465
    1NGb    C0U   30   0.698   1.487  -2.553
    1NGb    C0V   31   0.702   1.492  -2.704
    1NGb    C0W   32   0.606   1.546  -2.777
    1NGb    C0X   33   0.493   1.619  -2.725
    1NGb    N0Y   34   0.385   1.665  -2.707
    1NGb    C0Z   35   0.639   1.525  -2.906
    1NGb    C10   36   0.586   1.573  -3.025
    1NGb    C11   37   0.465   1.640  -3.029
    1NGb    N12   38   0.362   1.703  -3.041
    1NGb    C13   39   0.638   1.520  -3.148
    1NGb    N14   40   0.692   1.498  -3.254
    1NGb    O15   41   0.756   1.455  -2.915
    1NGb    C16   42   0.809   1.423  -2.782
    1NGb    C17   43   0.805   1.275  -2.754
    1NGb    C18   44   0.707   1.199  -2.809
    1NGb    C19   45   0.706   1.068  -2.787
    1NGb    C1A   46   0.802   1.007  -2.714
    1NGb    C1B   47   0.901   1.082  -2.655
    1NGb    C1C   48   0.899   1.220  -2.670
    1NGb    C1D   49   0.941   1.501  -2.770
    1NGb    F1E   50   0.915   1.629  -2.823
    1NGb    F1F   51   0.987   1.519  -2.642
    1NGb    F1G   52   1.029   1.443  -2.839
    1NGb    C1H   53   0.409   1.675  -2.289
    1NGb    C1I   54   0.365   1.767  -2.181
    1NGb    C1J   55   0.462   1.876  -2.172
    1NGb    C1K   56   0.226   1.826  -2.220
    1NGb    C1M   57   0.344   1.693  -2.056
    1NGb    C1N   58   0.486   1.491  -1.607
    1NGb    C1O   59   0.498   1.478  -1.465
    1NGb    H1P   60   0.754   1.625  -1.259
    1NGb    H1Q   61   0.676   1.586  -1.104
    1NGb    H1R   62   0.581   1.653  -1.231
    1NGb    H1S   63   0.490   1.306  -1.242
    1NGb    H1T   64   0.447   1.459  -1.170
    1NGb    H1U   65   0.612   1.418  -0.985
    1NGb    H1V   66   0.676   1.278  -1.076
    1NGb    H1W   67   0.715   1.280  -0.852
    1NGb    H1X   68   0.748   1.174  -0.641
    1NGb    H1Y   69   0.712   1.173  -0.425
    1NGb    H1Z   70   0.748   1.071  -0.207
    1NGb    DUM   71   0.680   0.894  -0.058
    1NGb    H21   72   0.477   0.755  -0.311
    1NGb    H22   73   0.440   0.856  -0.529
    1NGb    H23   74   0.348   1.011  -0.653
    1NGb    H24   75   0.315   1.119  -0.872
    1NGb    H25   76   0.837   1.460  -1.443
    1NGb    H26   77   0.814   1.499  -1.686
    1NGb    H27   78   0.662   1.455  -1.886
    1NGb    H28   79   0.431   1.641  -1.815
    1NGb    H29   80   0.641   1.516  -2.086
    1NGb    H2A   81   0.710   1.492  -2.294
    1NGb    H2B   82   0.513   1.584  -2.496
    1NGb    H2C   83   0.773   1.433  -2.497
    1NGb    H2D   84   0.632   1.240  -2.875
    1NGb    H2E   85   0.630   1.002  -2.827
    1NGb    H2F   86   0.799   0.900  -2.697
    1NGb    H2G   87   0.979   1.042  -2.593
    1NGb    H2H   88   0.969   1.293  -2.635
    1NGb    H2I   89   0.318   1.619  -2.309
    1NGb    H2J   90   0.433   1.726  -2.382
    1NGb    H2K   91   0.483   1.928  -2.266
    1NGb    H2M   92   0.558   1.836  -2.138
    1NGb    H2N   93   0.438   1.942  -2.089
    1NGb    H2O   94   0.145   1.754  -2.239
    1NGb    H2P   95   0.241   1.889  -2.306
    1NGb    H2Q   96   0.200   1.892  -2.137
    1NGb    H2R   97   0.264   1.621  -2.076
    1NGb    H2S   98   0.314   1.755  -1.971
    1NGb    H2T   99   0.389   1.497  -1.652
    1NGb    H2U  100   0.407   1.477  -1.408
    1NGb    C00    1   1.405   1.584  -1.212
    1NGb    N01    2   1.375   1.456  -1.272
    1NGb    C02    3   1.272   1.393  -1.190
    1NGb    C03    4   1.329   1.340  -1.056
    1NGb    O04    5   1.226   1.258  -1.003
    1NGb    C05    6   1.249   1.206  -0.878
    1NGb    C06    7   1.372   1.223  -0.812
    1NGb    C07    8   1.393   1.162  -0.688
    1NGb    C08    9   1.292   1.084  -0.630
    1NGb    C09   10   1.314   1.023  -0.497
    1NGb    C0A   11   1.401   1.081  -0.403
    1NGb    C0B   12   1.420   1.024  -0.276
    1NGb    C0C   13   1.356   0.904  -0.243
    1NGb    DUM   14   1.378   0.840  -0.123
    1NGb    C0E   15   1.269   0.845  -0.336
    1NGb    C0F   16   1.247   0.906  -0.460
    1NGb    C0G   17   1.170   1.066  -0.695
    1NGb    C0H   18   1.149   1.129  -0.818
    1NGb    C0I   19   1.363   1.463  -1.406
    1NGb    C0J   20   1.480   1.468  -1.490
    1NGb    C0K   21   1.465   1.496  -1.623
    1NGb    C0M   22   1.343   1.506  -1.683
    1NGb    C0N   23   1.334   1.517  -1.828
    1NGb    C0O   24   1.236   1.590  -1.882
    1NGb    C0P   25   1.202   1.605  -2.015
    1NGb    C0Q   26   1.288   1.562  -2.108
    1NGb    C0R   27   1.264   1.581  -2.238
    1NGb    C0S   28   1.359   1.535  -2.335
    1NGb    C0T   29   1.344   1.537  -2.465
    1NGb    C0U   30   1.438   1.487  -2.553
    1NGb    C0V   31   1.442   1.492  -2.704
    1NGb    C0W   32   1.346   1.546  -2.777
    1NGb    C0X   33   1.233   1.619  -2.725
    1NGb    N0Y   34   1.125   1.665  -2.707
    1NGb    C0Z   35   1.379   1.525  -2.906
    1NGb    C10   36   1.326   1.573  -3.025
    1NGb    C11   37   1.205   1.640  -3.029
    1NGb    N12   38   1.102   1.703  -3.041
    1NGb    C13   39   1.378   1.520  -3.148
    1NGb    N14   40   1.432   1.498  -3.254
    1NGb    O15   41   1.496   1.455  -2.915
    1NGb    C16   42   1.549   1.423  -2.782
    1NGb    C17   43   1.545   1.275  -2.754
    1NGb    C18   44   1.447   1.199  -2.809
    1NGb    C19   45   1.446   1.068  -2.787
    1NGb    C1A   46   1.542   1.007  -2.714
    1NGb    C1B   47   1.641   1.082  -2.655
    1NGb    C1C   48   1.639   1.220  -2.670
    1NGb    C1D   49   1.681   1.501  -2.770
    1NGb    F1E   50   1.655   1.629  -2.823
    1NGb    F1F   51   1.727   1.519  -2.642
    1NGb    F1G   52   1.769   1.443  -2.839
    1NGb    C1H   53   1.149   1.675  -2.289
    1NGb    C1I   54   1.105   1.767  -2.181
    1NGb    C1J   55   1.202   1.876  -2.172
    1NGb    C1K   56   0.966   1.826  -2.220
    1NGb    C1M   57   1.084   1.693  -2.056
    1NGb    C1N   58   1.226   1.491  -1.607
    1NGb    C1O   59   1.238   1.478  -1.465
    1NGb    H1P   60   1.494   1.625  -1.259
    1NGb    H1Q   61   1.416   1.586  -1.104
    1NGb    H1R   62   1.321   1.653  -1.231
    1NGb    H1S   63   1.230   1.306  -1.242
    1NGb    H1T   64   1.187   1.459  -1.170
    1NGb    H1U   65   1.352   1.418  -0.985
    1NGb    H1V   66   1.416   1.278  -1.076
    1NGb    H1W   67   1.455   1.280  -0.852
    1NGb    H1X   68   1.488   1.174  -0.641
    1NGb    H1Y   69   1.452   1.173  -0.425
    1NGb    H1Z   70   1.488   1.071  -0.207
    1NGb    DUM   71   1.420   0.894  -0.058
    1NGb    H21   72   1.217   0.755  -0.311
    1NGb    H22   73   1.180   0.856  -0.529
    1NGb    H23   74   1.088   1.011  -0.653
    1NGb    H24   75   1.055   1.119  -0.872
    1NGb    H25   76   1.577   1.460  -1.443
    1NGb    H26   77   1.554   1.499  -1.686
    1NGb    H27   78   1.402   1.455  -1.886
    1NGb    H28   79   1.171   1.641  -1.815
    1NGb    H29   80   1.381   1.516  -2.086
    1NGb    H2A   81   1.450   1.492  -2.294
    1NGb    H2B   82   1.253   1.584  -2.496
    1NGb    H2C   83   1.513   1.433  -2.497
    1NGb    H2D   84   1.372   1.240  -2.875
    1NGb    H2E   85   1.370   1.002  -2.827
    1NGb    H2F   86   1.539   0.900  -2.697
    1NGb    H2G   87   1.719   1.042  -2.593
    1NGb    H2H   88   1.709   1.293  -2.635
    1NGb    H2I   89   1.058   1.619  -2.309
    1NGb    H2J   90   1.173   1.726  -2.382
    1NGb    H2K   91   1.223   1.928  -2.266
    1NGb    H2M   92   1.298   1.836  -2.138
    1NGb    H2N   93   1.178   1.942  -2.089
    1NGb    H2O   94   0.885   1.754  -2.239
    1NGb    H2P   95   0.981   1.889  -2.306
    1NGb    H2Q   96   0.940   1.892  -2.137
    1NGb    H2R   97   1.004   1.621  -2.076
    1NGb    H2S   98   1.054   1.755  -1.971
    1NGb    H2T   99   1.129   1.497  -1.652
    1NGb    H2U  100   1.147   1.477  -1.408
    1NGb    C00    1   2.145   1.584  -1.212
    1NGb    N01    2   2.115   1.456  -1.272
    1NGb    C02    3   2.012   1.393  -1.190
    1NGb    C03    4   2.069   1.340  -1.056
    1NGb    O04    5   1.966   1.258  -1.003
    1NGb    C05    6   1.989   1.206  -0.878
    1NGb    C06    7   2.112   1.223  -0.812
    1NGb    C07    8   2.133   1.162  -0.688
    1NGb    C08    9   2.032   1.084  -0.630
    1NGb    C09   10   2.054   1.023  -0.497
    1NGb    C0A   11   2.141   1.081  -0.403
    1NGb    C0B   12   2.160   1.024  -0.276
    1NGb    C0C   13   2.096   0.904  -0.243
    1NGb    DUM   14   2.118   0.840  -0.123
    1NGb    C0E   15   2.009   0.845  -0.336
    1NGb    C0F   16   1.987   0.906  -0.460
    1NGb    C0G   17   1.910   1.066  -0.695
    1NGb    C0H   18   1.889   1.129  -0.818
    1NGb    C0I   19   2.103   1.463  -1.406
    1NGb    C0J   20   2.220   1.468  -1.490
    1NGb    C0K   21   2.205   1.496  -1.623
    1NGb    C0M   22   2.083   1.506  -1.683
    1NGb    C0N   23   2.074   1.517  -1.828
    1NGb    C0O   24   1.976   1.590  -1.882
    1NGb    C0P   25   1.942   1.605  -2.015
    1NGb    C0Q   26   2.028   1.562  -2.108
    1NGb    C0R   27   2.004   1.581  -2.238
    1NGb    C0S   28   2.099   1.535  -2.335
    1NGb    C0T   29   2.084   1.537  -2.465
    1NGb    C0U   30   2.178   1.487  -2.553
    1NGb    C0V   31   2.182   1.492  -2.704
    1NGb    C0W   32   2.086   1.546  -2.777
    1NGb    C0X   33   1.973   1.619  -2.725
    1NGb    N0Y   34   1.865   1.665  -2.707
    1NGb    C0Z   35   2.119   1.525  -2.906
    1NGb    C10   36   2.066   1.573  -3.025
    1NGb    C11   37   1.945   1.640  -3.029
    1NGb    N12   38   1.842   1.703  -3.041
    1NGb    C13   39   2.118   1.520  -3.148
    1NGb    N14   40   2.172   1.498  -3.254
    1NGb    O15   41   2.236   1.455  -2.915
    1NGb    C16   42   2.289   1.423  -2.782
    1NGb    C17   43   2.285   1.275  -2.754
    1NGb    C18   44   2.187   1.199  -2.809
    1NGb    C19   45   2.186   1.068  -2.787
    1NGb    C1A   46   2.282   1.007  -2.714
    1NGb    C1B   47   2.381   1.082  -2.655
    1NGb    C1C   48   2.379   1.220  -2.670
    1NGb    C1D   49   2.421   1.501  -2.770
    1NGb    F1E   50   2.395   1.629  -2.823
    1NGb    F1F   51   2.467   1.519  -2.642
    1NGb    F1G   52   2.509   1.443  -2.839
    1NGb    C1H   53   1.889   1.675  -2.289
    1NGb    C1I   54   1.845   1.767  -2.181
    1NGb    C1J   55   1.942   1.876  -2.172
    1NGb    C1K   56   1.706   1.826  -2.220
    1NGb    C1M   57   1.824   1.693  -2.056
    1NGb    C1N   58   1.966   1.491  -1.607
    1NGb    C1O   59   1.978   1.478  -1.465
    1NGb    H1P   60   2.234   1.625  -1.259
    1NGb    H1Q   61   2.156   1.586  -1.104
    1NGb    H1R   62   2.061   1.653  -1.231
    1NGb    H1S   63   1.970   1.306  -1.242
    1NGb    H1T   64   1.927   1.459  -1.170
    1NGb    H1U   65   2.092   1.418  -0.985
    1NGb    H1V   66   2.156   1.278  -1.076
    1NGb    H1W   67   2.195   1.280  -0.852
    1NGb    H1X   68   2.228   1.174  -0.641
    1NGb    H1Y   69   2.192   1.173  -0.425
    1NGb    H1Z   70   2.228   1.071  -0.207
    1NGb    DUM   71   2.160   0.894  -0.058
    1NGb    H21   72   1.957   0.755  -0.311
    1NGb    H22   73   1.920   0.856  -0.529
    1NGb    H23   74   1.828   1.011  -0.653
    1NGb    H24   75   1.795   1.119  -0.872
    1NGb    H25   76   2.317   1.460  -1.443
    1NGb    H26   77   2.294   1.499  -1.686
    1NGb    H27   78   2.142   1.455  -1.886
    1NGb    H28   79   1.911   1.641  -1.815
    1NGb    H29   80   2.121   1.516  -2.086
    1NGb    H2A   81   2.190   1.492  -2.294
    1NGb    H2B   82   1.993   1.584  -2.496
    1NGb    H2C   83   2.253   1.433  -2.497
    1NGb    H2D   84   2.112   1.240  -2.875
    1NGb    H2E   85   2.110   1.002  -2.827
    1NGb    H2F   86   2.279   0.900  -2.697
    1NGb    H2G   87   2.459   1.042  -2.593
    1NGb    H2H   88   2.449   1.293  -2.635
    1NGb    H2I   89   1.798   1.619  -2.309
    1NGb    H2J   90   1.913   1.726  -2.382
    1NGb    H2K   91   1.963   1.928  -2.266
    1NGb    H2M   92   2.038   1.836  -2.138
    1NGb    H2N   93   1.918   1.942  -2.089
    1NGb    H2O   94   1.625   1.754  -2.239
    1NGb    H2P   95   1.721   1.889  -2.306
    1NGb    H2Q   96   1.680   1.892  -2.137
    1NGb    H2R   97   1.744   1.621  -2.076
    1NGb    H2S   98   1.794   1.755  -1.971
    1NGb    H2T   99   1.869   1.497  -1.652
    1NGb    H2U  100   1.887   1.477  -1.408
    1NGb    C00    1   2.884   1.584  -1.212
    1NGb    N01    2   2.854   1.456  -1.272
    1NGb    C02    3   2.751   1.393  -1.190
    1NGb    C03    4   2.808   1.340  -1.056
    1NGb    O04    5   2.705   1.258  -1.003
    1NGb    C05    6   2.728   1.206  -0.878
    1NGb    C06    7   2.851   1.223  -0.812
    1NGb    C07    8   2.872   1.162  -0.688
    1NGb    C08    9   2.771   1.084  -0.630
    1NGb    C09   10   2.793   1.023  -0.497
    1NGb    C0A   11   2.880   1.081  -0.403
    1NGb    C0B   12   2.899   1.024  -0.276
    1NGb    C0C   13   2.835   0.904  -0.243
    1NGb    DUM   14   2.857   0.840  -0.123
    1NGb    C0E   15   2.748   0.845  -0.336
    1NGb    C0F   16   2.726   0.906  -0.460
    1NGb    C0G   17   2.649   1.066  -0.695
    1NGb    C0H   18   2.628   1.129  -0.818
    1NGb    C0I   19   2.842   1.463  -1.406
    1NGb    C0J   20   2.959   1.468  -1.490
    1NGb    C0K   21   2.944   1.496  -1.623
    1NGb    C0M   22   2.822   1.506  -1.683
    1NGb    C0N   23   2.813   1.517  -1.828
    1NGb    C0O   24   2.715   1.590  -1.882
    1NGb    C0P   25   2.681   1.605  -2.015
    1NGb    C0Q   26   2.767   1.562  -2.108
    1NGb    C0R   27   2.743   1.581  -2.238
    1NGb    C0S   28   2.838   1.535  -2.335
    1NGb    C0T   29   2.823   1.537  -2.465
    1NGb    C0U   30   2.917   1.487  -2.553
    1NGb    C0V   31   2.921   1.492  -2.704
    1NGb    C0W   32   2.825   1.546  -2.777
    1NGb    C0X   33   2.712   1.619  -2.725
    1NGb    N0Y   34   2.604   1.665  -2.707
    1NGb    C0Z   35   2.858   1.525  -2.906
    1NGb    C10   36   2.805   1.573  -3.025
    1NGb    C11   37   2.684   1.640  -3.029
    1NGb    N12   38   2.581   1.703  -3.041
    1NGb    C13   39   2.857   1.520  -3.148
    1NGb    N14   40   2.911   1.498  -3.254
    1NGb    O15   41   2.975   1.455  -2.915
    1NGb    C16   42   3.028   1.423  -2.782
    1NGb    C17   43   3.024   1.275  -2.754
    1NGb    C18   44   2.926   1.199  -2.809
    1NGb    C19   45   2.925   1.068  -2.787
    1NGb    C1A   46   3.021   1.007  -2.714
    1NGb    C1B   47   3.120   1.082  -2.655
    1NGb    C1C   48   3.118   1.220  -2.670
    1NGb    C1D   49   3.160   1.501  -2.770
    1NGb    F1E   50   3.134   1.629  -2.823
    1NGb    F1F   51   3.206   1.519  -2.642
    1NGb    F1G   52   3.248   1.443  -2.839
    1NGb    C1H   53   2.628   1.675  -2.289
    1NGb    C1I   54   2.584   1.767  -2.181
    1NGb    C1J   55   2.681   1.876  -2.172
    1NGb    C1K   56   2.445   1.826  -2.220
    1NGb    C1M   57   2.563   1.693  -2.056
    1NGb    C1N   58   2.705   1.491  -1.607
    1NGb    C1O   59   2.717   1.478  -1.465
    1NGb    H1P   60   2.973   1.625  -1.259
    1NGb    H1Q   61   2.895   1.586  -1.104
    1NGb    H1R   62   2.800   1.653  -1.231
    1NGb    H1S   63   2.709   1.306  -1.242
    1NGb    H1T   64   2.666   1.459  -1.170
    1NGb    H1U   65   2.831   1.418  -0.985
    1NGb    H1V   66   2.895   1.278  -1.076
    1NGb    H1W   67   2.934   1.280  -0.852
    1NGb    H1X   68   2.967   1.174  -0.641
    1NGb    H1Y   69   2.931   1.173  -0.425
    1NGb    H1Z   70   2.967   1.071  -0.207
    1NGb    DUM   71   2.899   0.894  -0.058
    1NGb    H21   72   2.696   0.755  -0.311
    1NGb    H22   73   2.659   0.856  -0.529
    1NGb    H23   74   2.567   1.011  -0.653
    1NGb    H24   75   2.534   1.119  -0.872
    1NGb    H25   76   3.056   1.460  -1.443
    1NGb    H26   77   3.033   1.499  -1.686
    1NGb    H27   78   2.881   1.455  -1.886
    1NGb    H28   79   2.650   1.641  -1.815
    1NGb    H29   80   2.860   1.516  -2.086
    1NGb    H2A   81   2.929   1.492  -2.294
    1NGb    H2B   82   2.732   1.584  -2.496
    1NGb    H2C   83   2.992   1.433  -2.497
    1NGb    H2D   84   2.851   1.240  -2.875
    1NGb    H2E   85   2.849   1.002  -2.827
    1NGb    H2F   86   3.018   0.900  -2.697
    1NGb    H2G   87   3.198   1.042  -2.593
    1NGb    H2H   88   3.188   1.293  -2.635
    1NGb    H2I   89   2.537   1.619  -2.309
    1NGb    H2J   90   2.652   1.726  -2.382
    1NGb    H2K   91   2.702   1.928  -2.266
    1NGb    H2M   92   2.777   1.836  -2.138
    1NGb    H2N   93   2.657   1.942  -2.089
    1NGb    H2O   94   2.364   1.754  -2.239
    1NGb    H2P   95   2.460   1.889  -2.306
    1NGb    H2Q   96   2.419   1.892  -2.137
    1NGb    H2R   97   2.483   1.621  -2.076
    1NGb    H2S   98   2.533   1.755  -1.971
    1NGb    H2T   99   2.608   1.497  -1.652
    1NGb    H2U  100   2.626   1.477  -1.408
    1NGb    C00    1   3.624   1.584  -1.212
    1NGb    N01    2   3.594   1.456  -1.272
    1NGb    C02    3   3.491   1.393  -1.190
    1NGb    C03    4   3.548   1.340  -1.056
    1NGb    O04    5   3.445   1.258  -1.003
    1NGb    C05    6   3.468   1.206  -0.878
    1NGb    C06    7   3.591   1.223  -0.812
    1NGb    C07    8   3.612   1.162  -0.688
    1NGb    C08    9   3.511   1.084  -0.630
    1NGb    C09   10   3.533   1.023  -0.497
    1NGb    C0A   11   3.620   1.081  -0.403
    1NGb    C0B   12   3.639   1.024  -0.276
    1NGb    C0C   13   3.575   0.904  -0.243
    1NGb    DUM   14   3.597   0.840  -0.123
    1NGb    C0E   15   3.488   0.845  -0.336
    1NGb    C0F   16   3.466   0.906  -0.460
    1NGb    C0G   17   3.389   1.066  -0.695
    1NGb    C0H   18   3.368   1.129  -0.818
    1NGb    C0I   19   3.582   1.463  -1.406
    1NGb    C0J   20   3.699   1.468  -1.490
    1NGb    C0K   21   3.684   1.496  -1.623
    1NGb    C0M   22   3.562   1.506  -1.683
    1NGb    C0N   23   3.553   1.517  -1.828
    1NGb    C0O   24   3.455   1.590  -1.882
    1NGb    C0P   25   3.421   1.605  -2.015
    1NGb    C0Q   26   3.507   1.562  -2.108
    1NGb    C0R   27   3.483   1.581  -2.238
    1NGb    C0S   28   3.578   1.535  -2.335
    1NGb    C0T   29   3.563   1.537  -2.465
    1NGb    C0U   30   3.657   1.487  -2.553
    1NGb    C0V   31   3.661   1.492  -2.704
    1NGb    C0W   32   3.565   1.546  -2.777
    1NGb    C0X   33   3.452   1.619  -2.725
    1NGb    N0Y   34   3.344   1.665  -2.707
    1NGb    C0Z   35   3.598   1.525  -2.906
    1NGb    C10   36   3.545   1.573  -3.025
    1NGb    C11   37   3.424   1.640  -3.029
    1NGb    N12   38   3.321   1.703  -3.041
    1NGb    C13   39   3.597   1.520  -3.148
    1NGb    N14   40   3.651   1.498  -3.254
    1NGb    O15   41   3.715   1.455  -2.915
    1NGb    C16   42   3.768   1.423  -2.782
    1NGb    C17   43   3.764   1.275  -2.754
    1NGb    C18   44   3.666   1.199  -2.809
    1NGb    C19   45   3.665   1.068  -2.787
    1NGb    C1A   46   3.761   1.007  -2.714
    1NGb    C1B   47   3.860   1.082  -2.655
    1NGb    C1C   48   3.858   1.220  -2.670
    1NGb    C1D   49   3.900   1.501  -2.770
    1NGb    F1E   50   3.874   1.629  -2.823
    1NGb    F1F   51   3.946   1.519  -2.642
    1NGb    F1G   52   3.988   1.443  -2.839
    1NGb    C1H   53   3.368   1.675  -2.289
    1NGb    C1I   54   3.324   1.767  -2.181
    1NGb    C1J   55   3.421   1.876  -2.172
    1NGb    C1K   56   3.185   1.826  -2.220
    1NGb    C1M   57   3.303   1.693  -2.056
    1NGb    C1N   58   3.445   1.491  -1.607
    1NGb    C1O   59   3.457   1.478  -1.465
    1NGb    H1P   60   3.713   1.625  -1.259
    1NGb    H1Q   61   3.635   1.586  -1.104
    1NGb    H1R   62   3.540   1.653  -1.231
    1NGb    H1S   63   3.449   1.306  -1.242
    1NGb    H1T   64   3.406   1.459  -1.170
    1NGb    H1U   65   3.571   1.418  -0.985
    1NGb    H1V   66   3.635   1.278  -1.076
    1NGb    H1W   67   3.674   1.280  -0.852
    1NGb    H1X   68   3.707   1.174  -0.641
    1NGb    H1Y   69   3.671   1.173  -0.425
    1NGb    H1Z   70   3.707   1.071  -0.207
    1NGb    DUM   71   3.639   0.894  -0.058
    1NGb    H21   72   3.436   0.755  -0.311
    1NGb    H22   73   3.399   0.856  -0.529
    1NGb    H23   74   3.307   1.011  -0.653
    1NGb    H24   75   3.274   1.119  -0.872
    1NGb    H25   76   3.796   1.460  -1.443
    1NGb    H26   77   3.773   1.499  -1.686
    1NGb    H27   78   3.621   1.455  -1.886
    1NGb    H28   79   3.390   1.641  -1.815
    1NGb    H29   80   3.600   1.516  -2.086
    1NGb    H2A   81   3.669   1.492  -2.294
    1NGb    H2B   82   3.472   1.584  -2.496
    1NGb    H2C   83   3.732   1.433  -2.497
    1NGb    H2D   84   3.591   1.240  -2.875
    1NGb    H2E   85   3.589   1.002  -2.827
    1NGb    H2F   86   3.758   0.900  -2.697
    1NGb    H2G   87   3.938   1.042  -2.593
    1NGb    H2H   88   3.928   1.293  -2.635
    1NGb    H2I   89   3.277   1.619  -2.309
    1NGb    H2J   90   3.392   1.726  -2.382
    1NGb    H2K   91   3.442   1.928  -2.266
    1NGb    H2M   92   3.517   1.836  -2.138
    1NGb    H2N   93   3.397   1.942  -2.089
    1NGb    H2O   94   3.104   1.754  -2.239
    1NGb    H2P   95   3.200   1.889  -2.306
    1NGb    H2Q   96   3.159   1.892  -2.137
    1NGb    H2R   97   3.223   1.621  -2.076
    1NGb    H2S   98   3.273   1.755  -1.971
    1NGb    H2T   99   3.348   1.497  -1.652
    1NGb    H2U  100   3.366   1.477  -1.408
    1NGb    C00    1   4.364   1.584  -1.212
    1NGb    N01    2   4.334   1.456  -1.272
    1NGb    C02    3   4.231   1.393  -1.190
    1NGb    C03    4   4.288   1.340  -1.056
    1NGb    O04    5   4.185   1.258  -1.003
    1NGb    C05    6   4.208   1.206  -0.878
    1NGb    C06    7   4.331   1.223  -0.812
    1NGb    C07    8   4.352   1.162  -0.688
    1NGb    C08    9   4.251   1.084  -0.630
    1NGb    C09   10   4.273   1.023  -0.497
    1NGb    C0A   11   4.360   1.081  -0.403
    1NGb    C0B   12   4.379   1.024  -0.276
    1NGb    C0C   13   4.315   0.904  -0.243
    1NGb    DUM   14   4.337   0.840  -0.123
    1NGb    C0E   15   4.228   0.845  -0.336
    1NGb    C0F   16   4.206   0.906  -0.460
    1NGb    C0G   17   4.129   1.066  -0.695
    1NGb    C0H   18   4.108   1.129  -0.818
    1NGb    C0I   19   4.322   1.463  -1.406
    1NGb    C0J   20   4.439   1.468  -1.490
    1NGb    C0K   21   4.424   1.496  -1.623
    1NGb    C0M   22   4.302   1.506  -1.683
    1NGb    C0N   23   4.293   1.517  -1.828
    1NGb    C0O   24   4.195   1.590  -1.882
    1NGb    C0P   25   4.161   1.605  -2.015
    1NGb    C0Q   26   4.247   1.562  -2.108
    1NGb    C0R   27   4.223   1.581  -2.238
    1NGb    C0S   28   4.318   1.535  -2.335
    1NGb    C0T   29   4.303   1.537  -2.465
    1NGb    C0U   30   4.397   1.487  -2.553
    1NGb    C0V   31   4.401   1.492  -2.704
    1NGb    C0W   32   4.305   1.546  -2.777
    1NGb    C0X   33   4.192   1.619  -2.725
    1NGb    N0Y   34   4.084   1.665  -2.707
    1NGb    C0Z   35   4.338   1.525  -2.906
    1NGb    C10   36   4.285   1.573  -3.025
    1NGb    C11   37   4.164   1.640  -3.029
    1NGb    N12   38   4.061   1.703  -3.041
    1NGb    C13   39   4.337   1.520  -3.148
    1NGb    N14   40   4.391   1.498  -3.254
    1NGb    O15   41   4.455   1.455  -2.915
    1NGb    C16   42   4.508   1.423  -2.782
    1NGb    C17   43   4.504   1.275  -2.754
    1NGb    C18   44   4.406   1.199  -2.809
    1NGb    C19   45   4.405   1.068  -2.787
    1NGb    C1A   46   4.501   1.007  -2.714
    1NGb    C1B   47   4.600   1.082  -2.655
    1NGb    C1C   48   4.598   1.220  -2.670
    1NGb    C1D   49   4.640   1.501  -2.770
    1NGb    F1E   50   4.614   1.629  -2.823
    1NGb    F1F   51   4.686   1.519  -2.642
    1NGb    F1G   52   4.728   1.443  -2.839
    1NGb    C1H   53   4.108   1.675  -2.289
    1NGb    C1I   54   4.064   1.767  -2.181
    1NGb    C1J   55   4.161   1.876  -2.172
    1NGb    C1K   56   3.925   1.826  -2.220
    1NGb    C1M   57   4.043   1.693  -2.056
    1NGb    C1N   58   4.185   1.491  -1.607
    1NGb    C1O   59   4.197   1.478  -1.465
    1NGb    H1P   60   4.453   1.625  -1.259
    1NGb    H1Q   61   4.375   1.586  -1.104
    1NGb    H1R   62   4.280   1.653  -1.231
    1NGb    H1S   63   4.189   1.306  -1.242
    1NGb    H1T   64   4.146   1.459  -1.170
    1NGb    H1U   65   4.311   1.418  -0.985
    1NGb    H1V   66   4.375   1.278  -1.076
    1NGb    H1W   67   4.414   1.280  -0.852
    1NGb    H1X   68   4.447   1.174  -0.641
    1NGb    H1Y   69   4.411   1.173  -0.425
    1NGb    H1Z   70   4.447   1.071  -0.207
    1NGb    DUM   71   4.379   0.894  -0.058
    1NGb    H21   72   4.176   0.755  -0.311
    1NGb    H22   73   4.139   0.856  -0.529
    1NGb    H23   74   4.047   1.011  -0.653
    1NGb    H24   75   4.014   1.119  -0.872
    1NGb    H25   76   4.536   1.460  -1.443
    1NGb    H26   77   4.513   1.499  -1.686
    1NGb    H27   78   4.361   1.455  -1.886
    1NGb    H28   79   4.130   1.641  -1.815
    1NGb    H29   80   4.340   1.516  -2.086
    1NGb    H2A   81   4.409   1.492  -2.294
    1NGb    H2B   82   4.212   1.584  -2.496
    1NGb    H2C   83   4.472   1.433  -2.497
    1NGb    H2D   84   4.331   1.240  -2.875
    1NGb    H2E   85   4.329   1.002  -2.827
    1NGb    H2F   86   4.498   0.900  -2.697
    1NGb    H2G   87   4.678   1.042  -2.593
    1NGb    H2H   88   4.668   1.293  -2.635
    1NGb    H2I   89   4.017   1.619  -2.309
    1NGb    H2J   90   4.132   1.726  -2.382
    1NGb    H2K   91   4.182   1.928  -2.266
    1NGb    H2M   92   4.257   1.836  -2.138
    1NGb    H2N   93   4.137   1.942  -2.089
    1NGb    H2O   94   3.844   1.754  -2.239
    1NGb    H2P   95   3.940   1.889  -2.306
    1NGb    H2Q   96   3.899   1.892  -2.137
    1NGb    H2R   97   3.963   1.621  -2.076
    1NGb    H2S   98   4.013   1.755  -1.971
    1NGb    H2T   99   4.088   1.497  -1.652
    1NGb    H2U  100   4.106   1.477  -1.408
    1NGb    C00    1   5.104   1.584  -1.212
    1NGb    N01    2   5.074   1.456  -1.272
    1NGb    C02    3   4.971   1.393  -1.190
    1NGb    C03    4   5.028   1.340  -1.056
    1NGb    O04    5   4.925   1.258  -1.003
    1NGb    C05    6   4.948   1.206  -0.878
    1NGb    C06    7   5.071   1.223  -0.812
    1NGb    C07    8   5.092   1.162  -0.688
    1NGb    C08    9   4.991   1.084  -0.630
    1NGb    C09   10   5.013   1.023  -0.497
    1NGb    C0A   11   5.100   1.081  -0.403
    1NGb    C0B   12   5.119   1.024  -0.276
    1NGb    C0C   13   5.055   0.904  -0.243
    1NGb    DUM   14   5.077   0.840  -0.123
    1NGb    C0E   15   4.968   0.845  -0.336
    1NGb    C0F   16   4.946   0.906  -0.460
    1NGb    C0G   17   4.869   1.066  -0.695
    1NGb    C0H   18   4.848   1.129  -0.818
    1NGb    C0I   19   5.062   1.463  -1.406
    1NGb    C0J   20   5.179   1.468  -1.490
    1NGb    C0K   21   5.164   1.496  -1.623
    1NGb    C0M   22   5.042   1.506  -1.683
    1NGb    C0N   23   5.033   1.517  -1.828
    1NGb    C0O   24   4.935   1.590  -1.882
    1NGb    C0P   25   4.901   1.605  -2.015
    1NGb    C0Q   26   4.987   1.562  -2.108
    1NGb    C0R   27   4.963   1.581  -2.238
    1NGb    C0S   28   5.058   1.535  -2.335
    1NGb    C0T   29   5.043   1.537  -2.465
    1NGb    C0U   30   5.137   1.487  -2.553
    1NGb    C0V   31   5.141   1.492  -2.704
    1NGb    C0W   32   5.045   1.546  -2.777
    1NGb    C0X   33   4.932   1.619  -2.725
    1NGb    N0Y   34   4.824   1.665  -2.707
    1NGb    C0Z   35   5.078   1.525  -2.906
    1NGb    C10   36   5.025   1.573  -3.025
    1NGb    C11   37   4.904   1.640  -3.029
    1NGb    N12   38   4.801   1.703  -3.041
    1NGb    C13   39   5.077   1.520  -3.148
    1NGb    N14   40   5.131   1.498  -3.254
    1NGb    O15   41   5.195   1.455  -2.915
    1NGb    C16   42   5.248   1.423  -2.782
    1NGb    C17   43   5.244   1.275  -2.754
    1NGb    C18   44   5.146   1.199  -2.809
    1NGb    C19   45   5.145   1.068  -2.787
    1NGb    C1A   46   5.241   1.007  -2.714
    1NGb    C1B   47   5.340   1.082  -2.655
    1NGb    C1C   48   5.338   1.220  -2.670
    1NGb    C1D   49   5.380   1.501  -2.770
    1NGb    F1E   50   5.354   1.629  -2.823
    1NGb    F1F   51   5.426   1.519  -2.642
    1NGb    F1G   52   5.468   1.443  -2.839
    1NGb    C1H   53   4.848   1.675  -2.289
    1NGb    C1I   54   4.804   1.767  -2.181
    1NGb    C1J   55   4.901   1.876  -2.172
    1NGb    C1K   56   4.665   1.826  -2.220
    1NGb    C1M   57   4.783   1.693  -2.056
    1NGb    C1N   58   4.925   1.491  -1.607
    1NGb    C1O   59   4.937   1.478  -1.465
    1NGb    H1P   60   5.193   1.625  -1.259
    1NGb    H1Q   61   5.115   1.586  -1.104
    1NGb    H1R   62   5.020   1.653  -1.231
    1NGb    H1S   63   4.929   1.306  -1.242
    1NGb    H1T   64   4.886   1.459  -1.170
    1NGb    H1U   65   5.051   1.418  -0.985
    1NGb    H1V   66   5.115   1.278  -1.076
    1NGb    H1W   67   5.154   1.280  -0.852
    1NGb    H1X   68   5.187   1.174  -0.641
    1NGb    H1Y   69   5.151   1.173  -0.425
    1NGb    H1Z   70   5.187   1.071  -0.207
    1NGb    DUM   71   5.119   0.894  -0.058
    1NGb    H21   72   4.916   0.755  -0.311
    1NGb    H22   73   4.879   0.856  -0.529
    1NGb    H23   74   4.787   1.011  -0.653
    1NGb    H24   75   4.754   1.119  -0.872
    1NGb    H25   76   5.276   1.460  -1.443
    1NGb    H26   77   5.253   1.499  -1.686
    1NGb    H27   78   5.101   1.455  -1.886
    1NGb    H28   79   4.870   1.641  -1.815
    1NGb    H29   80   5.080   1.516  -2.086
    1NGb    H2A   81   5.149   1.492  -2.294
    1NGb    H2B   82   4.952   1.584  -2.496
    1NGb    H2C   83   5.212   1.433  -2.497
    1NGb    H2D   84   5.071   1.240  -2.875
    1NGb    H2E   85   5.069   1.002  -2.827
    1NGb    H2F   86   5.238   0.900  -2.697
    1NGb    H2G   87   5.418   1.042  -2.593
    1NGb    H2H   88   5.408   1.293  -2.635
    1NGb    H2I   89   4.757   1.619  -2.309
    1NGb    H2J   90   4.872   1.726  -2.382
    1NGb    H2K   91   4.922   1.928  -2.266
    1NGb    H2M   92   4.997   1.836  -2.138
    1NGb    H2N   93   4.877   1.942  -2.089
    1NGb    H2O   94   4.584   1.754  -2.239
    1NGb    H2P   95   4.680   1.889  -2.306
    1NGb    H2Q   96   4.639   1.892  -2.137
    1NGb    H2R   97   4.703   1.621  -2.076
    1NGb    H2S   98   4.753   1.755  -1.971
    1NGb    H2T   99   4.828   1.497  -1.652
    1NGb    H2U  100   4.846   1.477  -1.408
    1NGb    C00    1  -0.075   2.324  -1.212
    1NGb    N01    2  -0.105   2.196  -1.272
    1NGb    C02    3  -0.208   2.133  -1.190
    1NGb    C03    4  -0.151   2.080  -1.056
    1NGb    O04    5  -0.254   1.998  -1.003
    1NGb    C05    6  -0.231   1.946  -0.878
    1NGb    C06    7  -0.108   1.963  -0.812
    1NGb    C07    8  -0.087   1.902  -0.688
    1NGb    C08    9  -0.188   1.824  -0.630
    1NGb    C09   10  -0.166   1.763  -0.497
    1NGb    C0A   11  -0.079   1.821  -0.403
    1NGb    C0B   12  -0.060   1.764  -0.276
    1NGb    C0C   13  -0.124   1.644  -0.243
    1NGb    DUM   14  -0.102   1.580  -0.123
    1NGb    C0E   15  -0.211   1.585  -0.336
    1NGb    C0F   16  -0.233   1.646  -0.460
    1NGb    C0G   17  -0.310   1.806  -0.695
    1NGb    C0H   18  -0.331   1.869  -0.818
    1NGb    C0I   19  -0.117   2.203  -1.406
    1NGb    C0J   20   0.000   2.208  -1.490
    1NGb    C0K   21  -0.015   2.236  -1.623
    1NGb    C0M   22  -0.137   2.246  -1.683
    1NGb    C0N   23  -0.146   2.257  -1.828
    1NGb    C0O   24  -0.244   2.330  -1.882
    1NGb    C0P   25  -0.278   2.345  -2.015
    1NGb    C0Q   26  -0.192   2.302  -2.108
    1NGb    C0R   27  -0.216   2.321  -2.238
    1NGb    C0S   28  -0.121   2.275  -2.335
    1NGb    C0T   29  -0.136   2.277  -2.465
    1NGb    C0U   30  -0.042   2.227  -2.553
    1NGb    C0V   31  -0.038   2.232  -2.704
    1NGb    C0W   32  -0.134   2.286  -2.777
    1NGb    C0X   33  -0.247   2.359  -2.725
    1NGb    N0Y   34  -0.355   2.405  -2.707
    1NGb    C0Z   35  -0.101   2.265  -2.906
    1NGb    C10   36  -0.154   2.313  -3.025
    1NGb    C11   37  -0.275   2.380  -3.029
    1NGb    N12   38  -0.378   2.443  -3.041
    1NGb    C13   39  -0.102   2.260  -3.148
    1NGb    N14   40  -0.048   2.238  -3.254
    1NGb    O15   41   0.016   2.195  -2.915
    1NGb    C16   42   0.069   2.163  -2.782
    1NGb    C17   43   0.065   2.015  -2.754
    1NGb    C18   44  -0.033   1.939  -2.809
    1NGb    C19   45  -0.034   1.808  -2.787
    1NGb    C1A   46   0.062   1.747  -2.714
    1NGb    C1B   47   0.161   1.822  -2.655
    1NGb    C1C   48   0.159   1.960  -2.670
    1NGb    C1D   49   0.201   2.241  -2.770
    1NGb    F1E   50   0.175   2.369  -2.823
    1NGb    F1F   51   0.247   2.259  -2.642
    1NGb    F1G   52   0.289   2.183  -2.839
    1NGb    C1H   53  -0.331   2.415  -2.289
    1NGb    C1I   54  -0.375   2.507  -2.181
    1NGb    C1J   55  -0.278   2.616  -2.172
    1NGb    C1K   56  -0.514   2.566  -2.220
    1NGb    C1M   57  -0.396   2.433  -2.056
    1NGb    C1N   58  -0.254   2.231  -1.607
    1NGb    C1O   59  -0.242   2.218  -1.465
    1NGb    H1P   60   0.014   2.365  -1.259
    1NGb    H1Q   61  -0.064   2.326  -1.104
    1NGb    H1R   62  -0.159   2.393  -1.231
    1NGb    H1S   63  -0.250   2.046  -1.242
    1NGb    H1T   64  -0.293   2.199  -1.170
    1NGb    H1U   65  -0.128   2.158  -0.985
    1NGb    H1V   66  -0.064   2.018  -1.076
    1NGb    H1W   67  -0.025   2.020  -0.852
    1NGb    H1X   68   0.008   1.914  -0.641
    1NGb    H1Y   69  -0.028   1.913  -0.425
    1NGb    H1Z   70   0.008   1.811  -0.207
    1NGb    DUM   71  -0.060   1.634  -0.058
    1NGb    H21   72  -0.263   1.495  -0.311
    1NGb    H22   73  -0.300   1.596  -0.529
    1NGb    H23   74  -0.392   1.751  -0.653
    1NGb    H24   75  -0.425   1.859  -0.872
    1NGb    H25   76   0.097   2.200  -1.443
    1NGb    H26   77   0.074   2.239  -1.686
    1NGb    H27   78  -0.078   2.195  -1.886
    1NGb    H28   79  -0.309   2.381  -1.815
    1NGb    H29   80  -0.099   2.256  -2.086
    1NGb    H2A   81  -0.030   2.232  -2.294
    1NGb    H2B   82  -0.227   2.324  -2.496
    1NGb    H2C   83   0.033   2.173  -2.497
    1NGb    H2D   84  -0.108   1.980  -2.875
    1NGb    H2E   85  -0.110   1.742  -2.827
    1NGb    H2F   86   0.059   1.640  -2.697
    1NGb    H2G   87   0.239   1.782  -2.593
    1NGb    H2H   88   0.229   2.033  -2.635
    1NGb    H2I   89  -0.422   2.359  -2.309
    1NGb    H2J   90  -0.307   2.466  -2.382
    1NGb    H2K   91  -0.257   2.668  -2.266
    1NGb    H2M   92  -0.182   2.576  -2.138
    1NGb    H2N   93  -0.302   2.682  -2.089
    1NGb    H2O   94  -0.595   2.494  -2.239
    1NGb    H2P   95  -0.499   2.629  -2.306
    1NGb    H2Q   96  -0.540   2.632  -2.137
    1NGb    H2R   97  -0.476   2.361  -2.076
    1NGb    H2S   98  -0.426   2.495  -1.971
    1NGb    H2T   99  -0.351   2.237  -1.652
    1NGb    H2U  100  -0.333   2.217  -1.408
    1NGb    C00    1   0.665   2.324  -1.212
    1NGb    N01    2   0.635   2.196  -1.272
    1NGb    C02    3   0.532   2.133  -1.190
    1NGb    C03    4   0.589   2.080  -1.056
    1NGb    O04    5   0.486   1.998  -1.003
    1NGb    C05    6   0.509   1.946  -0.878
    1NGb    C06    7   0.632   1.963  -0.812
    1NGb    C07    8   0.653   1.902  -0.688
    1NGb    C08    9   0.552   1.824  -0.630
    1NGb    C09   10   0.574   1.763  -0.497
    1NGb    C0A   11   0.661   1.821  -0.403
    1NGb    C0B   12   0.680   1.764  -0.276
    1NGb    C0C   13   0.616   1.644  -0.243
    1NGb    DUM   14   0.638   1.580  -0.123
    1NGb    C0E   15   0.529   1.585  -0.336
    1NGb    C0F   16   0.507   1.646  -0.460
    1NGb    C0G   17   0.430   1.806  -0.695
    1NGb    C0H   18   0.409   1.869  -0.818
    1NGb    C0I   19   0.623   2.203  -1.406
    1NGb    C0J   20   0.740   2.208  -1.490
    1NGb    C0K   21   0.725   2.236  -1.623
    1NGb    C0M   22   0.603   2.246  -1.683
    1NGb    C0N   23   0.594   2.257  -1.828
    1NGb    C0O   24   0.496   2.330  -1.882
    1NGb    C0P   25   0.462   2.345  -2.015
    1NGb    C0Q   26   0.548   2.302  -2.108
    1NGb    C0R   27   0.524   2.321  -2.238
    1NGb    C0S   28   0.619   2.275  -2.335
    1NGb    C0T   29   0.604   2.277  -2.465
    1NGb    C0U   30   0.698   2.227  -2.553
    1NGb    C0V   31   0.702   2.232  -2.704
    1NGb    C0W   32   0.606   2.286  -2.777
    1NGb    C0X   33   0.493   2.359  -2.725
    1NGb    N0Y   34   0.385   2.405  -2.707
    1NGb    C0Z   35   0.639   2.265  -2.906
    1NGb    C10   36   0.586   2.313  -3.025
    1NGb    C11   37   0.465   2.380  -3.029
    1NGb    N12   38   0.362   2.443  -3.041
    1NGb    C13   39   0.638   2.260  -3.148
    1NGb    N14   40   0.692   2.238  -3.254
    1NGb    O15   41   0.756   2.195  -2.915
    1NGb    C16   42   0.809   2.163  -2.782
    1NGb    C17   43   0.805   2.015  -2.754
    1NGb    C18   44   0.707   1.939  -2.809
    1NGb    C19   45   0.706   1.808  -2.787
    1NGb    C1A   46   0.802   1.747  -2.714
    1NGb    C1B   47   0.901   1.822  -2.655
    1NGb    C1C   48   0.899   1.960  -2.670
    1NGb    C1D   49   0.941   2.241  -2.770
    1NGb    F1E   50   0.915   2.369  -2.823
    1NGb    F1F   51   0.987   2.259  -2.642
    1NGb    F1G   52   1.029   2.183  -2.839
    1NGb    C1H   53   0.409   2.415  -2.289
    1NGb    C1I   54   0.365   2.507  -2.181
    1NGb    C1J   55   0.462   2.616  -2.172
    1NGb    C1K   56   0.226   2.566  -2.220
    1NGb    C1M   57   0.344   2.433  -2.056
    1NGb    C1N   58   0.486   2.231  -1.607
    1NGb    C1O   59   0.498   2.218  -1.465
    1NGb    H1P   60   0.754   2.365  -1.259
    1NGb    H1Q   61   0.676   2.326  -1.104
    1NGb    H1R   62   0.581   2.393  -1.231
    1NGb    H1S   63   0.490   2.046  -1.242
    1NGb    H1T   64   0.447   2.199  -1.170
    1NGb    H1U   65   0.612   2.158  -0.985
    1NGb    H1V   66   0.676   2.018  -1.076
    1NGb    H1W   67   0.715   2.020  -0.852
    1NGb    H1X   68   0.748   1.914  -0.641
    1NGb    H1Y   69   0.712   1.913  -0.425
    1NGb    H1Z   70   0.748   1.811  -0.207
    1NGb    DUM   71   0.680   1.634  -0.058
    1NGb    H21   72   0.477   1.495  -0.311
    1NGb    H22   73   0.440   1.596  -0.529
    1NGb    H23   74   0.348   1.751  -0.653
    1NGb    H24   75   0.315   1.859  -0.872
    1NGb    H25   76   0.837   2.200  -1.443
    1NGb    H26   77   0.814   2.239  -1.686
    1NGb    H27   78   0.662   2.195  -1.886
    1NGb    H28   79   0.431   2.381  -1.815
    1NGb    H29   80   0.641   2.256  -2.086
    1NGb    H2A   81   0.710   2.232  -2.294
    1NGb    H2B   82   0.513   2.324  -2.496
    1NGb    H2C   83   0.773   2.173  -2.497
    1NGb    H2D   84   0.632   1.980  -2.875
    1NGb    H2E   85   0.630   1.742  -2.827
    1NGb    H2F   86   0.799   1.640  -2.697
    1NGb    H2G   87   0.979   1.782  -2.593
    1NGb    H2H   88   0.969   2.033  -2.635
    1NGb    H2I   89   0.318   2.359  -2.309
    1NGb    H2J   90   0.433   2.466  -2.382
    1NGb    H2K   91   0.483   2.668  -2.266
    1NGb    H2M   92   0.558   2.576  -2.138
    1NGb    H2N   93   0.438   2.682  -2.089
    1NGb    H2O   94   0.145   2.494  -2.239
    1NGb    H2P   95   0.241   2.629  -2.306
    1NGb    H2Q   96   0.200   2.632  -2.137
    1NGb    H2R   97   0.264   2.361  -2.076
    1NGb    H2S   98   0.314   2.495  -1.971
    1NGb    H2T   99   0.389   2.237  -1.652
    1NGb    H2U  100   0.407   2.217  -1.408
    1NGb    C00    1   1.405   2.324  -1.212
    1NGb    N01    2   1.375   2.196  -1.272
    1NGb    C02    3   1.272   2.133  -1.190
    1NGb    C03    4   1.329   2.080  -1.056
    1NGb    O04    5   1.226   1.998  -1.003
    1NGb    C05    6   1.249   1.946  -0.878
    1NGb    C06    7   1.372   1.963  -0.812
    1NGb    C07    8   1.393   1.902  -0.688
    1NGb    C08    9   1.292   1.824  -0.630
    1NGb    C09   10   1.314   1.763  -0.497
    1NGb    C0A   11   1.401   1.821  -0.403
    1NGb    C0B   12   1.420   1.764  -0.276
    1NGb    C0C   13   1.356   1.644  -0.243
    1NGb    DUM   14   1.378   1.580  -0.123
    1NGb    C0E   15   1.269   1.585  -0.336
    1NGb    C0F   16   1.247   1.646  -0.460
    1NGb    C0G   17   1.170   1.806  -0.695
    1NGb    C0H   18   1.149   1.869  -0.818
    1NGb    C0I   19   1.363   2.203  -1.406
    1NGb    C0J   20   1.480   2.208  -1.490
    1NGb    C0K   21   1.465   2.236  -1.623
    1NGb    C0M   22   1.343   2.246  -1.683
    1NGb    C0N   23   1.334   2.257  -1.828
    1NGb    C0O   24   1.236   2.330  -1.882
    1NGb    C0P   25   1.202   2.345  -2.015
    1NGb    C0Q   26   1.288   2.302  -2.108
    1NGb    C0R   27   1.264   2.321  -2.238
    1NGb    C0S   28   1.359   2.275  -2.335
    1NGb    C0T   29   1.344   2.277  -2.465
    1NGb    C0U   30   1.438   2.227  -2.553
    1NGb    C0V   31   1.442   2.232  -2.704
    1NGb    C0W   32   1.346   2.286  -2.777
    1NGb    C0X   33   1.233   2.359  -2.725
    1NGb    N0Y   34   1.125   2.405  -2.707
    1NGb    C0Z   35   1.379   2.265  -2.906
    1NGb    C10   36   1.326   2.313  -3.025
    1NGb    C11   37   1.205   2.380  -3.029
    1NGb    N12   38   1.102   2.443  -3.041
    1NGb    C13   39   1.378   2.260  -3.148
    1NGb    N14   40   1.432   2.238  -3.254
    1NGb    O15   41   1.496   2.195  -2.915
    1NGb    C16   42   1.549   2.163  -2.782
    1NGb    C17   43   1.545   2.015  -2.754
    1NGb    C18   44   1.447   1.939  -2.809
    1NGb    C19   45   1.446   1.808  -2.787
    1NGb    C1A   46   1.542   1.747  -2.714
    1NGb    C1B   47   1.641   1.822  -2.655
    1NGb    C1C   48   1.639   1.960  -2.670
    1NGb    C1D   49   1.681   2.241  -2.770
    1NGb    F1E   50   1.655   2.369  -2.823
    1NGb    F1F   51   1.727   2.259  -2.642
    1NGb    F1G   52   1.769   2.183  -2.839
    1NGb    C1H   53   1.149   2.415  -2.289
    1NGb    C1I   54   1.105   2.507  -2.181
    1NGb    C1J   55   1.202   2.616  -2.172
    1NGb    C1K   56   0.966   2.566  -2.220
    1NGb    C1M   57   1.084   2.433  -2.056
    1NGb    C1N   58   1.226   2.231  -1.607
    1NGb    C1O   59   1.238   2.218  -1.465
    1NGb    H1P   60   1.494   2.365  -1.259
    1NGb    H1Q   61   1.416   2.326  -1.104
    1NGb    H1R   62   1.321   2.393  -1.231
    1NGb    H1S   63   1.230   2.046  -1.242
    1NGb    H1T   64   1.187   2.199  -1.170
    1NGb    H1U   65   1.352   2.158  -0.985
    1NGb    H1V   66   1.416   2.018  -1.076
    1NGb    H1W   67   1.455   2.020  -0.852
    1NGb    H1X   68   1.488   1.914  -0.641
    1NGb    H1Y   69   1.452   1.913  -0.425
    1NGb    H1Z   70   1.488   1.811  -0.207
    1NGb    DUM   71   1.420   1.634  -0.058
    1NGb    H21   72   1.217   1.495  -0.311
    1NGb    H22   73   1.180   1.596  -0.529
    1NGb    H23   74   1.088   1.751  -0.653
    1NGb    H24   75   1.055   1.859  -0.872
    1NGb    H25   76   1.577   2.200  -1.443
    1NGb    H26   77   1.554   2.239  -1.686
    1NGb    H27   78   1.402   2.195  -1.886
    1NGb    H28   79   1.171   2.381  -1.815
    1NGb    H29   80   1.381   2.256  -2.086
    1NGb    H2A   81   1.450   2.232  -2.294
    1NGb    H2B   82   1.253   2.324  -2.496
    1NGb    H2C   83   1.513   2.173  -2.497
    1NGb    H2D   84   1.372   1.980  -2.875
    1NGb    H2E   85   1.370   1.742  -2.827
    1NGb    H2F   86   1.539   1.640  -2.697
    1NGb    H2G   87   1.719   1.782  -2.593
    1NGb    H2H   88   1.709   2.033  -2.635
    1NGb    H2I   89   1.058   2.359  -2.309
    1NGb    H2J   90   1.173   2.466  -2.382
    1NGb    H2K   91   1.223   2.668  -2.266
    1NGb    H2M   92   1.298   2.576  -2.138
    1NGb    H2N   93   1.178   2.682  -2.089
    1NGb    H2O   94   0.885   2.494  -2.239
    1NGb    H2P   95   0.981   2.629  -2.306
    1NGb    H2Q   96   0.940   2.632  -2.137
    1NGb    H2R   97   1.004   2.361  -2.076
    1NGb    H2S   98   1.054   2.495  -1.971
    1NGb    H2T   99   1.129   2.237  -1.652
    1NGb    H2U  100   1.147   2.217  -1.408
    1NGb    C00    1   2.145   2.324  -1.212
    1NGb    N01    2   2.115   2.196  -1.272
    1NGb    C02    3   2.012   2.133  -1.190
    1NGb    C03    4   2.069   2.080  -1.056
    1NGb    O04    5   1.966   1.998  -1.003
    1NGb    C05    6   1.989   1.946  -0.878
    1NGb    C06    7   2.112   1.963  -0.812
    1NGb    C07    8   2.133   1.902  -0.688
    1NGb    C08    9   2.032   1.824  -0.630
    1NGb    C09   10   2.054   1.763  -0.497
    1NGb    C0A   11   2.141   1.821  -0.403
    1NGb    C0B   12   2.160   1.764  -0.276
    1NGb    C0C   13   2.096   1.644  -0.243
    1NGb    DUM   14   2.118   1.580  -0.123
    1NGb    C0E   15   2.009   1.585  -0.336
    1NGb    C0F   16   1.987   1.646  -0.460
    1NGb    C0G   17   1.910   1.806  -0.695
    1NGb    C0H   18   1.889   1.869  -0.818
    1NGb    C0I   19   2.103   2.203  -1.406
    1NGb    C0J   20   2.220   2.208  -1.490
    1NGb    C0K   21   2.205   2.236  -1.623
    1NGb    C0M   22   2.083   2.246  -1.683
    1NGb    C0N   23   2.074   2.257  -1.828
    1NGb    C0O   24   1.976   2.330  -1.882
    1NGb    C0P   25   1.942   2.345  -2.015
    1NGb    C0Q   26   2.028   2.302  -2.108
    1NGb    C0R   27   2.004   2.321  -2.238
    1NGb    C0S   28   2.099   2.275  -2.335
    1NGb    C0T   29   2.084   2.277  -2.465
    1NGb    C0U   30   2.178   2.227  -2.553
    1NGb    C0V   31   2.182   2.232  -2.704
    1NGb    C0W   32   2.086   2.286  -2.777
    1NGb    C0X   33   1.973   2.359  -2.725
    1NGb    N0Y   34   1.865   2.405  -2.707
    1NGb    C0Z   35   2.119   2.265  -2.906
    1NGb    C10   36   2.066   2.313  -3.025
    1NGb    C11   37   1.945   2.380  -3.029
    1NGb    N12   38   1.842   2.443  -3.041
    1NGb    C13   39   2.118   2.260  -3.148
    1NGb    N14   40   2.172   2.238  -3.254
    1NGb    O15   41   2.236   2.195  -2.915
    1NGb    C16   42   2.289   2.163  -2.782
    1NGb    C17   43   2.285   2.015  -2.754
    1NGb    C18   44   2.187   1.939  -2.809
    1NGb    C19   45   2.186   1.808  -2.787
    1NGb    C1A   46   2.282   1.747  -2.714
    1NGb    C1B   47   2.381   1.822  -2.655
    1NGb    C1C   48   2.379   1.960  -2.670
    1NGb    C1D   49   2.421   2.241  -2.770
    1NGb    F1E   50   2.395   2.369  -2.823
    1NGb    F1F   51   2.467   2.259  -2.642
    1NGb    F1G   52   2.509   2.183  -2.839
    1NGb    C1H   53   1.889   2.415  -2.289
    1NGb    C1I   54   1.845   2.507  -2.181
    1NGb    C1J   55   1.942   2.616  -2.172
    1NGb    C1K   56   1.706   2.566  -2.220
    1NGb    C1M   57   1.824   2.433  -2.056
    1NGb    C1N   58   1.966   2.231  -1.607
    1NGb    C1O   59   1.978   2.218  -1.465
    1NGb    H1P   60   2.234   2.365  -1.259
    1NGb    H1Q   61   2.156   2.326  -1.104
    1NGb    H1R   62   2.061   2.393  -1.231
    1NGb    H1S   63   1.970   2.046  -1.242
    1NGb    H1T   64   1.927   2.199  -1.170
    1NGb    H1U   65   2.092   2.158  -0.985
    1NGb    H1V   66   2.156   2.018  -1.076
    1NGb    H1W   67   2.195   2.020  -0.852
    1NGb    H1X   68   2.228   1.914  -0.641
    1NGb    H1Y   69   2.192   1.913  -0.425
    1NGb    H1Z   70   2.228   1.811  -0.207
    1NGb    DUM   71   2.160   1.634  -0.058
    1NGb    H21   72   1.957   1.495  -0.311
    1NGb    H22   73   1.920   1.596  -0.529
    1NGb    H23   74   1.828   1.751  -0.653
    1NGb    H24   75   1.795   1.859  -0.872
    1NGb    H25   76   2.317   2.200  -1.443
    1NGb    H26   77   2.294   2.239  -1.686
    1NGb    H27   78   2.142   2.195  -1.886
    1NGb    H28   79   1.911   2.381  -1.815
    1NGb    H29   80   2.121   2.256  -2.086
    1NGb    H2A   81   2.190   2.232  -2.294
    1NGb    H2B   82   1.993   2.324  -2.496
    1NGb    H2C   83   2.253   2.173  -2.497
    1NGb    H2D   84   2.112   1.980  -2.875
    1NGb    H2E   85   2.110   1.742  -2.827
    1NGb    H2F   86   2.279   1.640  -2.697
    1NGb    H2G   87   2.459   1.782  -2.593
    1NGb    H2H   88   2.449   2.033  -2.635
    1NGb    H2I   89   1.798   2.359  -2.309
    1NGb    H2J   90   1.913   2.466  -2.382
    1NGb    H2K   91   1.963   2.668  -2.266
    1NGb    H2M   92   2.038   2.576  -2.138
    1NGb    H2N   93   1.918   2.682  -2.089
    1NGb    H2O   94   1.625   2.494  -2.239
    1NGb    H2P   95   1.721   2.629  -2.306
    1NGb    H2Q   96   1.680   2.632  -2.137
    1NGb    H2R   97   1.744   2.361  -2.076
    1NGb    H2S   98   1.794   2.495  -1.971
    1NGb    H2T   99   1.869   2.237  -1.652
    1NGb    H2U  100   1.887   2.217  -1.408
    1NGb    C00    1   2.884   2.324  -1.212
    1NGb    N01    2   2.854   2.196  -1.272
    1NGb    C02    3   2.751   2.133  -1.190
    1NGb    C03    4   2.808   2.080  -1.056
    1NGb    O04    5   2.705   1.998  -1.003
    1NGb    C05    6   2.728   1.946  -0.878
    1NGb    C06    7   2.851   1.963  -0.812
    1NGb    C07    8   2.872   1.902  -0.688
    1NGb    C08    9   2.771   1.824  -0.630
    1NGb    C09   10   2.793   1.763  -0.497
    1NGb    C0A   11   2.880   1.821  -0.403
    1NGb    C0B   12   2.899   1.764  -0.276
    1NGb    C0C   13   2.835   1.644  -0.243
    1NGb    DUM   14   2.857   1.580  -0.123
    1NGb    C0E   15   2.748   1.585  -0.336
    1NGb    C0F   16   2.726   1.646  -0.460
    1NGb    C0G   17   2.649   1.806  -0.695
    1NGb    C0H   18   2.628   1.869  -0.818
    1NGb    C0I   19   2.842   2.203  -1.406
    1NGb    C0J   20   2.959   2.208  -1.490
    1NGb    C0K   21   2.944   2.236  -1.623
    1NGb    C0M   22   2.822   2.246  -1.683
    1NGb    C0N   23   2.813   2.257  -1.828
    1NGb    C0O   24   2.715   2.330  -1.882
    1NGb    C0P   25   2.681   2.345  -2.015
    1NGb    C0Q   26   2.767   2.302  -2.108
    1NGb    C0R   27   2.743   2.321  -2.238
    1NGb    C0S   28   2.838   2.275  -2.335
    1NGb    C0T   29   2.823   2.277  -2.465
    1NGb    C0U   30   2.917   2.227  -2.553
    1NGb    C0V   31   2.921   2.232  -2.704
    1NGb    C0W   32   2.825   2.286  -2.777
    1NGb    C0X   33   2.712   2.359  -2.725
    1NGb    N0Y   34   2.604   2.405  -2.707
    1NGb    C0Z   35   2.858   2.265  -2.906
    1NGb    C10   36   2.805   2.313  -3.025
    1NGb    C11   37   2.684   2.380  -3.029
    1NGb    N12   38   2.581   2.443  -3.041
    1NGb    C13   39   2.857   2.260  -3.148
    1NGb    N14   40   2.911   2.238  -3.254
    1NGb    O15   41   2.975   2.195  -2.915
    1NGb    C16   42   3.028   2.163  -2.782
    1NGb    C17   43   3.024   2.015  -2.754
    1NGb    C18   44   2.926   1.939  -2.809
    1NGb    C19   45   2.925   1.808  -2.787
    1NGb    C1A   46   3.021   1.747  -2.714
    1NGb    C1B   47   3.120   1.822  -2.655
    1NGb    C1C   48   3.118   1.960  -2.670
    1NGb    C1D   49   3.160   2.241  -2.770
    1NGb    F1E   50   3.134   2.369  -2.823
    1NGb    F1F   51   3.206   2.259  -2.642
    1NGb    F1G   52   3.248   2.183  -2.839
    1NGb    C1H   53   2.628   2.415  -2.289
    1NGb    C1I   54   2.584   2.507  -2.181
    1NGb    C1J   55   2.681   2.616  -2.172
    1NGb    C1K   56   2.445   2.566  -2.220
    1NGb    C1M   57   2.563   2.433  -2.056
    1NGb    C1N   58   2.705   2.231  -1.607
    1NGb    C1O   59   2.717   2.218  -1.465
    1NGb    H1P   60   2.973   2.365  -1.259
    1NGb    H1Q   61   2.895   2.326  -1.104
    1NGb    H1R   62   2.800   2.393  -1.231
    1NGb    H1S   63   2.709   2.046  -1.242
    1NGb    H1T   64   2.666   2.199  -1.170
    1NGb    H1U   65   2.831   2.158  -0.985
    1NGb    H1V   66   2.895   2.018  -1.076
    1NGb    H1W   67   2.934   2.020  -0.852
    1NGb    H1X   68   2.967   1.914  -0.641
    1NGb    H1Y   69   2.931   1.913  -0.425
    1NGb    H1Z   70   2.967   1.811  -0.207
    1NGb    DUM   71   2.899   1.634  -0.058
    1NGb    H21   72   2.696   1.495  -0.311
    1NGb    H22   73   2.659   1.596  -0.529
    1NGb    H23   74   2.567   1.751  -0.653
    1NGb    H24   75   2.534   1.859  -0.872
    1NGb    H25   76   3.056   2.200  -1.443
    1NGb    H26   77   3.033   2.239  -1.686
    1NGb    H27   78   2.881   2.195  -1.886
    1NGb    H28   79   2.650   2.381  -1.815
    1NGb    H29   80   2.860   2.256  -2.086
    1NGb    H2A   81   2.929   2.232  -2.294
    1NGb    H2B   82   2.732   2.324  -2.496
    1NGb    H2C   83   2.992   2.173  -2.497
    1NGb    H2D   84   2.851   1.980  -2.875
    1NGb    H2E   85   2.849   1.742  -2.827
    1NGb    H2F   86   3.018   1.640  -2.697
    1NGb    H2G   87   3.198   1.782  -2.593
    1NGb    H2H   88   3.188   2.033  -2.635
    1NGb    H2I   89   2.537   2.359  -2.309
    1NGb    H2J   90   2.652   2.466  -2.382
    1NGb    H2K   91   2.702   2.668  -2.266
    1NGb    H2M   92   2.777   2.576  -2.138
    1NGb    H2N   93   2.657   2.682  -2.089
    1NGb    H2O   94   2.364   2.494  -2.239
    1NGb    H2P   95   2.460   2.629  -2.306
    1NGb    H2Q   96   2.419   2.632  -2.137
    1NGb    H2R   97   2.483   2.361  -2.076
    1NGb    H2S   98   2.533   2.495  -1.971
    1NGb    H2T   99   2.608   2.237  -1.652
    1NGb    H2U  100   2.626   2.217  -1.408
    1NGb    C00    1   3.624   2.324  -1.212
    1NGb    N01    2   3.594   2.196  -1.272
    1NGb    C02    3   3.491   2.133  -1.190
    1NGb    C03    4   3.548   2.080  -1.056
    1NGb    O04    5   3.445   1.998  -1.003
    1NGb    C05    6   3.468   1.946  -0.878
    1NGb    C06    7   3.591   1.963  -0.812
    1NGb    C07    8   3.612   1.902  -0.688
    1NGb    C08    9   3.511   1.824  -0.630
    1NGb    C09   10   3.533   1.763  -0.497
    1NGb    C0A   11   3.620   1.821  -0.403
    1NGb    C0B   12   3.639   1.764  -0.276
    1NGb    C0C   13   3.575   1.644  -0.243
    1NGb    DUM   14   3.597   1.580  -0.123
    1NGb    C0E   15   3.488   1.585  -0.336
    1NGb    C0F   16   3.466   1.646  -0.460
    1NGb    C0G   17   3.389   1.806  -0.695
    1NGb    C0H   18   3.368   1.869  -0.818
    1NGb    C0I   19   3.582   2.203  -1.406
    1NGb    C0J   20   3.699   2.208  -1.490
    1NGb    C0K   21   3.684   2.236  -1.623
    1NGb    C0M   22   3.562   2.246  -1.683
    1NGb    C0N   23   3.553   2.257  -1.828
    1NGb    C0O   24   3.455   2.330  -1.882
    1NGb    C0P   25   3.421   2.345  -2.015
    1NGb    C0Q   26   3.507   2.302  -2.108
    1NGb    C0R   27   3.483   2.321  -2.238
    1NGb    C0S   28   3.578   2.275  -2.335
    1NGb    C0T   29   3.563   2.277  -2.465
    1NGb    C0U   30   3.657   2.227  -2.553
    1NGb    C0V   31   3.661   2.232  -2.704
    1NGb    C0W   32   3.565   2.286  -2.777
    1NGb    C0X   33   3.452   2.359  -2.725
    1NGb    N0Y   34   3.344   2.405  -2.707
    1NGb    C0Z   35   3.598   2.265  -2.906
    1NGb    C10   36   3.545   2.313  -3.025
    1NGb    C11   37   3.424   2.380  -3.029
    1NGb    N12   38   3.321   2.443  -3.041
    1NGb    C13   39   3.597   2.260  -3.148
    1NGb    N14   40   3.651   2.238  -3.254
    1NGb    O15   41   3.715   2.195  -2.915
    1NGb    C16   42   3.768   2.163  -2.782
    1NGb    C17   43   3.764   2.015  -2.754
    1NGb    C18   44   3.666   1.939  -2.809
    1NGb    C19   45   3.665   1.808  -2.787
    1NGb    C1A   46   3.761   1.747  -2.714
    1NGb    C1B   47   3.860   1.822  -2.655
    1NGb    C1C   48   3.858   1.960  -2.670
    1NGb    C1D   49   3.900   2.241  -2.770
    1NGb    F1E   50   3.874   2.369  -2.823
    1NGb    F1F   51   3.946   2.259  -2.642
    1NGb    F1G   52   3.988   2.183  -2.839
    1NGb    C1H   53   3.368   2.415  -2.289
    1NGb    C1I   54   3.324   2.507  -2.181
    1NGb    C1J   55   3.421   2.616  -2.172
    1NGb    C1K   56   3.185   2.566  -2.220
    1NGb    C1M   57   3.303   2.433  -2.056
    1NGb    C1N   58   3.445   2.231  -1.607
    1NGb    C1O   59   3.457   2.218  -1.465
    1NGb    H1P   60   3.713   2.365  -1.259
    1NGb    H1Q   61   3.635   2.326  -1.104
    1NGb    H1R   62   3.540   2.393  -1.231
    1NGb    H1S   63   3.449   2.046  -1.242
    1NGb    H1T   64   3.406   2.199  -1.170
    1NGb    H1U   65   3.571   2.158  -0.985
    1NGb    H1V   66   3.635   2.018  -1.076
    1NGb    H1W   67   3.674   2.020  -0.852
    1NGb    H1X   68   3.707   1.914  -0.641
    1NGb    H1Y   69   3.671   1.913  -0.425
    1NGb    H1Z   70   3.707   1.811  -0.207
    1NGb    DUM   71   3.639   1.634  -0.058
    1NGb    H21   72   3.436   1.495  -0.311
    1NGb    H22   73   3.399   1.596  -0.529
    1NGb    H23   74   3.307   1.751  -0.653
    1NGb    H24   75   3.274   1.859  -0.872
    1NGb    H25   76   3.796   2.200  -1.443
    1NGb    H26   77   3.773   2.239  -1.686
    1NGb    H27   78   3.621   2.195  -1.886
    1NGb    H28   79   3.390   2.381  -1.815
    1NGb    H29   80   3.600   2.256  -2.086
    1NGb    H2A   81   3.669   2.232  -2.294
    1NGb    H2B   82   3.472   2.324  -2.496
    1NGb    H2C   83   3.732   2.173  -2.497
    1NGb    H2D   84   3.591   1.980  -2.875
    1NGb    H2E   85   3.589   1.742  -2.827
    1NGb    H2F   86   3.758   1.640  -2.697
    1NGb    H2G   87   3.938   1.782  -2.593
    1NGb    H2H   88   3.928   2.033  -2.635
    1NGb    H2I   89   3.277   2.359  -2.309
    1NGb    H2J   90   3.392   2.466  -2.382
    1NGb    H2K   91   3.442   2.668  -2.266
    1NGb    H2M   92   3.517   2.576  -2.138
    1NGb    H2N   93   3.397   2.682  -2.089
    1NGb    H2O   94   3.104   2.494  -2.239
    1NGb    H2P   95   3.200   2.629  -2.306
    1NGb    H2Q   96   3.159   2.632  -2.137
    1NGb    H2R   97   3.223   2.361  -2.076
    1NGb    H2S   98   3.273   2.495  -1.971
    1NGb    H2T   99   3.348   2.237  -1.652
    1NGb    H2U  100   3.366   2.217  -1.408
    1NGb    C00    1   4.364   2.324  -1.212
    1NGb    N01    2   4.334   2.196  -1.272
    1NGb    C02    3   4.231   2.133  -1.190
    1NGb    C03    4   4.288   2.080  -1.056
    1NGb    O04    5   4.185   1.998  -1.003
    1NGb    C05    6   4.208   1.946  -0.878
    1NGb    C06    7   4.331   1.963  -0.812
    1NGb    C07    8   4.352   1.902  -0.688
    1NGb    C08    9   4.251   1.824  -0.630
    1NGb    C09   10   4.273   1.763  -0.497
    1NGb    C0A   11   4.360   1.821  -0.403
    1NGb    C0B   12   4.379   1.764  -0.276
    1NGb    C0C   13   4.315   1.644  -0.243
    1NGb    DUM   14   4.337   1.580  -0.123
    1NGb    C0E   15   4.228   1.585  -0.336
    1NGb    C0F   16   4.206   1.646  -0.460
    1NGb    C0G   17   4.129   1.806  -0.695
    1NGb    C0H   18   4.108   1.869  -0.818
    1NGb    C0I   19   4.322   2.203  -1.406
    1NGb    C0J   20   4.439   2.208  -1.490
    1NGb    C0K   21   4.424   2.236  -1.623
    1NGb    C0M   22   4.302   2.246  -1.683
    1NGb    C0N   23   4.293   2.257  -1.828
    1NGb    C0O   24   4.195   2.330  -1.882
    1NGb    C0P   25   4.161   2.345  -2.015
    1NGb    C0Q   26   4.247   2.302  -2.108
    1NGb    C0R   27   4.223   2.321  -2.238
    1NGb    C0S   28   4.318   2.275  -2.335
    1NGb    C0T   29   4.303   2.277  -2.465
    1NGb    C0U   30   4.397   2.227  -2.553
    1NGb    C0V   31   4.401   2.232  -2.704
    1NGb    C0W   32   4.305   2.286  -2.777
    1NGb    C0X   33   4.192   2.359  -2.725
    1NGb    N0Y   34   4.084   2.405  -2.707
    1NGb    C0Z   35   4.338   2.265  -2.906
    1NGb    C10   36   4.285   2.313  -3.025
    1NGb    C11   37   4.164   2.380  -3.029
    1NGb    N12   38   4.061   2.443  -3.041
    1NGb    C13   39   4.337   2.260  -3.148
    1NGb    N14   40   4.391   2.238  -3.254
    1NGb    O15   41   4.455   2.195  -2.915
    1NGb    C16   42   4.508   2.163  -2.782
    1NGb    C17   43   4.504   2.015  -2.754
    1NGb    C18   44   4.406   1.939  -2.809
    1NGb    C19   45   4.405   1.808  -2.787
    1NGb    C1A   46   4.501   1.747  -2.714
    1NGb    C1B   47   4.600   1.822  -2.655
    1NGb    C1C   48   4.598   1.960  -2.670
    1NGb    C1D   49   4.640   2.241  -2.770
    1NGb    F1E   50   4.614   2.369  -2.823
    1NGb    F1F   51   4.686   2.259  -2.642
    1NGb    F1G   52   4.728   2.183  -2.839
    1NGb    C1H   53   4.108   2.415  -2.289
    1NGb    C1I   54   4.064   2.507  -2.181
    1NGb    C1J   55   4.161   2.616  -2.172
    1NGb    C1K   56   3.925   2.566  -2.220
    1NGb    C1M   57   4.043   2.433  -2.056
    1NGb    C1N   58   4.185   2.231  -1.607
    1NGb    C1O   59   4.197   2.218  -1.465
    1NGb    H1P   60   4.453   2.365  -1.259
    1NGb    H1Q   61   4.375   2.326  -1.104
    1NGb    H1R   62   4.280   2.393  -1.231
    1NGb    H1S   63   4.189   2.046  -1.242
    1NGb    H1T   64   4.146   2.199  -1.170
    1NGb    H1U   65   4.311   2.158  -0.985
    1NGb    H1V   66   4.375   2.018  -1.076
    1NGb    H1W   67   4.414   2.020  -0.852
    1NGb    H1X   68   4.447   1.914  -0.641
    1NGb    H1Y   69   4.411   1.913  -0.425
    1NGb    H1Z   70   4.447   1.811  -0.207
    1NGb    DUM   71   4.379   1.634  -0.058
    1NGb    H21   72   4.176   1.495  -0.311
    1NGb    H22   73   4.139   1.596  -0.529
    1NGb    H23   74   4.047   1.751  -0.653
    1NGb    H24   75   4.014   1.859  -0.872
    1NGb    H25   76   4.536   2.200  -1.443
    1NGb    H26   77   4.513   2.239  -1.686
    1NGb    H27   78   4.361   2.195  -1.886
    1NGb    H28   79   4.130   2.381  -1.815
    1NGb    H29   80   4.340   2.256  -2.086
    1NGb    H2A   81   4.409   2.232  -2.294
    1NGb    H2B   82   4.212   2.324  -2.496
    1NGb    H2C   83   4.472   2.173  -2.497
    1NGb    H2D   84   4.331   1.980  -2.875
    1NGb    H2E   85   4.329   1.742  -2.827
    1NGb    H2F   86   4.498   1.640  -2.697
    1NGb    H2G   87   4.678   1.782  -2.593
    1NGb    H2H   88   4.668   2.033  -2.635
    1NGb    H2I   89   4.017   2.359  -2.309
    1NGb    H2J   90   4.132   2.466  -2.382
    1NGb    H2K   91   4.182   2.668  -2.266
    1NGb    H2M   92   4.257   2.576  -2.138
    1NGb    H2N   93   4.137   2.682  -2.089
    1NGb    H2O   94   3.844   2.494  -2.239
    1NGb    H2P   95   3.940   2.629  -2.306
    1NGb    H2Q   96   3.899   2.632  -2.137
    1NGb    H2R   97   3.963   2.361  -2.076
    1NGb    H2S   98   4.013   2.495  -1.971
    1NGb    H2T   99   4.088   2.237  -1.652
    1NGb    H2U  100   4.106   2.217  -1.408
    1NGb    C00    1   5.104   2.324  -1.212
    1NGb    N01    2   5.074   2.196  -1.272
    1NGb    C02    3   4.971   2.133  -1.190
    1NGb    C03    4   5.028   2.080  -1.056
    1NGb    O04    5   4.925   1.998  -1.003
    1NGb    C05    6   4.948   1.946  -0.878
    1NGb    C06    7   5.071   1.963  -0.812
    1NGb    C07    8   5.092   1.902  -0.688
    1NGb    C08    9   4.991   1.824  -0.630
    1NGb    C09   10   5.013   1.763  -0.497
    1NGb    C0A   11   5.100   1.821  -0.403
    1NGb    C0B   12   5.119   1.764  -0.276
    1NGb    C0C   13   5.055   1.644  -0.243
    1NGb    DUM   14   5.077   1.580  -0.123
    1NGb    C0E   15   4.968   1.585  -0.336
    1NGb    C0F   16   4.946   1.646  -0.460
    1NGb    C0G   17   4.869   1.806  -0.695
    1NGb    C0H   18   4.848   1.869  -0.818
    1NGb    C0I   19   5.062   2.203  -1.406
    1NGb    C0J   20   5.179   2.208  -1.490
    1NGb    C0K   21   5.164   2.236  -1.623
    1NGb    C0M   22   5.042   2.246  -1.683
    1NGb    C0N   23   5.033   2.257  -1.828
    1NGb    C0O   24   4.935   2.330  -1.882
    1NGb    C0P   25   4.901   2.345  -2.015
    1NGb    C0Q   26   4.987   2.302  -2.108
    1NGb    C0R   27   4.963   2.321  -2.238
    1NGb    C0S   28   5.058   2.275  -2.335
    1NGb    C0T   29   5.043   2.277  -2.465
    1NGb    C0U   30   5.137   2.227  -2.553
    1NGb    C0V   31   5.141   2.232  -2.704
    1NGb    C0W   32   5.045   2.286  -2.777
    1NGb    C0X   33   4.932   2.359  -2.725
    1NGb    N0Y   34   4.824   2.405  -2.707
    1NGb    C0Z   35   5.078   2.265  -2.906
    1NGb    C10   36   5.025   2.313  -3.025
    1NGb    C11   37   4.904   2.380  -3.029
    1NGb    N12   38   4.801   2.443  -3.041
    1NGb    C13   39   5.077   2.260  -3.148
    1NGb    N14   40   5.131   2.238  -3.254
    1NGb    O15   41   5.195   2.195  -2.915
    1NGb    C16   42   5.248   2.163  -2.782
    1NGb    C17   43   5.244   2.015  -2.754
    1NGb    C18   44   5.146   1.939  -2.809
    1NGb    C19   45   5.145   1.808  -2.787
    1NGb    C1A   46   5.241   1.747  -2.714
    1NGb    C1B   47   5.340   1.822  -2.655
    1NGb    C1C   48   5.338   1.960  -2.670
    1NGb    C1D   49   5.380   2.241  -2.770
    1NGb    F1E   50   5.354   2.369  -2.823
    1NGb    F1F   51   5.426   2.259  -2.642
    1NGb    F1G   52   5.468   2.183  -2.839
    1NGb    C1H   53   4.848   2.415  -2.289
    1NGb    C1I   54   4.804   2.507  -2.181
    1NGb    C1J   55   4.901   2.616  -2.172
    1NGb    C1K   56   4.665   2.566  -2.220
    1NGb    C1M   57   4.783   2.433  -2.056
    1NGb    C1N   58   4.925   2.231  -1.607
    1NGb    C1O   59   4.937   2.218  -1.465
    1NGb    H1P   60   5.193   2.365  -1.259
    1NGb    H1Q   61   5.115   2.326  -1.104
    1NGb    H1R   62   5.020   2.393  -1.231
    1NGb    H1S   63   4.929   2.046  -1.242
    1NGb    H1T   64   4.886   2.199  -1.170
    1NGb    H1U   65   5.051   2.158  -0.985
    1NGb    H1V   66   5.115   2.018  -1.076
    1NGb    H1W   67   5.154   2.020  -0.852
    1NGb    H1X   68   5.187   1.914  -0.641
    1NGb    H1Y   69   5.151   1.913  -0.425
    1NGb    H1Z   70   5.187   1.811  -0.207
    1NGb    DUM   71   5.119   1.634  -0.058
    1NGb    H21   72   4.916   1.495  -0.311
    1NGb    H22   73   4.879   1.596  -0.529
    1NGb    H23   74   4.787   1.751  -0.653
    1NGb    H24   75   4.754   1.859  -0.872
    1NGb    H25   76   5.276   2.200  -1.443
    1NGb    H26   77   5.253   2.239  -1.686
    1NGb    H27   78   5.101   2.195  -1.886
    1NGb    H28   79   4.870   2.381  -1.815
    1NGb    H29   80   5.080   2.256  -2.086
    1NGb    H2A   81   5.149   2.232  -2.294
    1NGb    H2B   82   4.952   2.324  -2.496
    1NGb    H2C   83   5.212   2.173  -2.497
    1NGb    H2D   84   5.071   1.980  -2.875
    1NGb    H2E   85   5.069   1.742  -2.827
    1NGb    H2F   86   5.238   1.640  -2.697
    1NGb    H2G   87   5.418   1.782  -2.593
    1NGb    H2H   88   5.408   2.033  -2.635
    1NGb    H2I   89   4.757   2.359  -2.309
    1NGb    H2J   90   4.872   2.466  -2.382
    1NGb    H2K   91   4.922   2.668  -2.266
    1NGb    H2M   92   4.997   2.576  -2.138
    1NGb    H2N   93   4.877   2.682  -2.089
    1NGb    H2O   94   4.584   2.494  -2.239
    1NGb    H2P   95   4.680   2.629  -2.306
    1NGb    H2Q   96   4.639   2.632  -2.137
    1NGb    H2R   97   4.703   2.361  -2.076
    1NGb    H2S   98   4.753   2.495  -1.971
    1NGb    H2T   99   4.828   2.237  -1.652
    1NGb    H2U  100   4.846   2.217  -1.408
    1NGb    C00    1  -0.075   3.064  -1.212
    1NGb    N01    2  -0.105   2.936  -1.272
    1NGb    C02    3  -0.208   2.873  -1.190
    1NGb    C03    4  -0.151   2.820  -1.056
    1NGb    O04    5  -0.254   2.738  -1.003
    1NGb    C05    6  -0.231   2.686  -0.878
    1NGb    C06    7  -0.108   2.703  -0.812
    1NGb    C07    8  -0.087   2.642  -0.688
    1NGb    C08    9  -0.188   2.564  -0.630
    1NGb    C09   10  -0.166   2.503  -0.497
    1NGb    C0A   11  -0.079   2.561  -0.403
    1NGb    C0B   12  -0.060   2.504  -0.276
    1NGb    C0C   13  -0.124   2.384  -0.243
    1NGb    DUM   14  -0.102   2.320  -0.123
    1NGb    C0E   15  -0.211   2.325  -0.336
    1NGb    C0F   16  -0.233   2.386  -0.460
    1NGb    C0G   17  -0.310   2.546  -0.695
    1NGb    C0H   18  -0.331   2.609  -0.818
    1NGb    C0I   19  -0.117   2.943  -1.406
    1NGb    C0J   20   0.000   2.948  -1.490
    1NGb    C0K   21  -0.015   2.976  -1.623
    1NGb    C0M   22  -0.137   2.986  -1.683
    1NGb    C0N   23  -0.146   2.997  -1.828
    1NGb    C0O   24  -0.244   3.070  -1.882
    1NGb    C0P   25  -0.278   3.085  -2.015
    1NGb    C0Q   26  -0.192   3.042  -2.108
    1NGb    C0R   27  -0.216   3.061  -2.238
    1NGb    C0S   28  -0.121   3.015  -2.335
    1NGb    C0T   29  -0.136   3.017  -2.465
    1NGb    C0U   30  -0.042   2.967  -2.553
    1NGb    C0V   31  -0.038   2.972  -2.704
    1NGb    C0W   32  -0.134   3.026  -2.777
    1NGb    C0X   33  -0.247   3.099  -2.725
    1NGb    N0Y   34  -0.355   3.145  -2.707
    1NGb    C0Z   35  -0.101   3.005  -2.906
    1NGb    C10   36  -0.154   3.053  -3.025
    1NGb    C11   37  -0.275   3.120  -3.029
    1NGb    N12   38  -0.378   3.183  -3.041
    1NGb    C13   39  -0.102   3.000  -3.148
    1NGb    N14   40  -0.048   2.978  -3.254
    1NGb    O15   41   0.016   2.935  -2.915
    1NGb    C16   42   0.069   2.903  -2.782
    1NGb    C17   43   0.065   2.755  -2.754
    1NGb    C18   44  -0.033   2.679  -2.809
    1NGb    C19   45  -0.034   2.548  -2.787
    1NGb    C1A   46   0.062   2.487  -2.714
    1NGb    C1B   47   0.161   2.562  -2.655
    1NGb    C1C   48   0.159   2.700  -2.670
    1NGb    C1D   49   0.201   2.981  -2.770
    1NGb    F1E   50   0.175   3.109  -2.823
    1NGb    F1F   51   0.247   2.999  -2.642
    1NGb    F1G   52   0.289   2.923  -2.839
    1NGb    C1H   53  -0.331   3.155  -2.289
    1NGb    C1I   54  -0.375   3.247  -2.181
    1NGb    C1J   55  -0.278   3.356  -2.172
    1NGb    C1K   56  -0.514   3.306  -2.220
    1NGb    C1M   57  -0.396   3.173  -2.056
    1NGb    C1N   58  -0.254   2.971  -1.607
    1NGb    C1O   59  -0.242   2.958  -1.465
    1NGb    H1P   60   0.014   3.105  -1.259
    1NGb    H1Q   61  -0.064   3.066  -1.104
    1NGb    H1R   62  -0.159   3.133  -1.231
    1NGb    H1S   63  -0.250   2.786  -1.242
    1NGb    H1T   64  -0.293   2.939  -1.170
    1NGb    H1U   65  -0.128   2.898  -0.985
    1NGb    H1V   66  -0.064   2.758  -1.076
    1NGb    H1W   67  -0.025   2.760  -0.852
    1NGb    H1X   68   0.008   2.654  -0.641
    1NGb    H1Y   69  -0.028   2.653  -0.425
    1NGb    H1Z   70   0.008   2.551  -0.207
    1NGb    DUM   71  -0.060   2.374  -0.058
    1NGb    H21   72  -0.263   2.235  -0.311
    1NGb    H22   73  -0.300   2.336  -0.529
    1NGb    H23   74  -0.392   2.491  -0.653
    1NGb    H24   75  -0.425   2.599  -0.872
    1NGb    H25   76   0.097   2.940  -1.443
    1NGb    H26   77   0.074   2.979  -1.686
    1NGb    H27   78  -0.078   2.935  -1.886
    1NGb    H28   79  -0.309   3.121  -1.815
    1NGb    H29   80  -0.099   2.996  -2.086
    1NGb    H2A   81  -0.030   2.972  -2.294
    1NGb    H2B   82  -0.227   3.064  -2.496
    1NGb    H2C   83   0.033   2.913  -2.497
    1NGb    H2D   84  -0.108   2.720  -2.875
    1NGb    H2E   85  -0.110   2.482  -2.827
    1NGb    H2F   86   0.059   2.380  -2.697
    1NGb    H2G   87   0.239   2.522  -2.593
    1NGb    H2H   88   0.229   2.773  -2.635
    1NGb    H2I   89  -0.422   3.099  -2.309
    1NGb    H2J   90  -0.307   3.206  -2.382
    1NGb    H2K   91  -0.257   3.408  -2.266
    1NGb    H2M   92  -0.182   3.316  -2.138
    1NGb    H2N   93  -0.302   3.422  -2.089
    1NGb    H2O   94  -0.595   3.234  -2.239
    1NGb    H2P   95  -0.499   3.369  -2.306
    1NGb    H2Q   96  -0.540   3.372  -2.137
    1NGb    H2R   97  -0.476   3.101  -2.076
    1NGb    H2S   98  -0.426   3.235  -1.971
    1NGb    H2T   99  -0.351   2.977  -1.652
    1NGb    H2U  100  -0.333   2.957  -1.408
    1NGb    C00    1   0.665   3.064  -1.212
    1NGb    N01    2   0.635   2.936  -1.272
    1NGb    C02    3   0.532   2.873  -1.190
    1NGb    C03    4   0.589   2.820  -1.056
    1NGb    O04    5   0.486   2.738  -1.003
    1NGb    C05    6   0.509   2.686  -0.878
    1NGb    C06    7   0.632   2.703  -0.812
    1NGb    C07    8   0.653   2.642  -0.688
    1NGb    C08    9   0.552   2.564  -0.630
    1NGb    C09   10   0.574   2.503  -0.497
    1NGb    C0A   11   0.661   2.561  -0.403
    1NGb    C0B   12   0.680   2.504  -0.276
    1NGb    C0C   13   0.616   2.384  -0.243
    1NGb    DUM   14   0.638   2.320  -0.123
    1NGb    C0E   15   0.529   2.325  -0.336
    1NGb    C0F   16   0.507   2.386  -0.460
    1NGb    C0G   17   0.430   2.546  -0.695
    1NGb    C0H   18   0.409   2.609  -0.818
    1NGb    C0I   19   0.623   2.943  -1.406
    1NGb    C0J   20   0.740   2.948  -1.490
    1NGb    C0K   21   0.725   2.976  -1.623
    1NGb    C0M   22   0.603   2.986  -1.683
    1NGb    C0N   23   0.594   2.997  -1.828
    1NGb    C0O   24   0.496   3.070  -1.882
    1NGb    C0P   25   0.462   3.085  -2.015
    1NGb    C0Q   26   0.548   3.042  -2.108
    1NGb    C0R   27   0.524   3.061  -2.238
    1NGb    C0S   28   0.619   3.015  -2.335
    1NGb    C0T   29   0.604   3.017  -2.465
    1NGb    C0U   30   0.698   2.967  -2.553
    1NGb    C0V   31   0.702   2.972  -2.704
    1NGb    C0W   32   0.606   3.026  -2.777
    1NGb    C0X   33   0.493   3.099  -2.725
    1NGb    N0Y   34   0.385   3.145  -2.707
    1NGb    C0Z   35   0.639   3.005  -2.906
    1NGb    C10   36   0.586   3.053  -3.025
    1NGb    C11   37   0.465   3.120  -3.029
    1NGb    N12   38   0.362   3.183  -3.041
    1NGb    C13   39   0.638   3.000  -3.148
    1NGb    N14   40   0.692   2.978  -3.254
    1NGb    O15   41   0.756   2.935  -2.915
    1NGb    C16   42   0.809   2.903  -2.782
    1NGb    C17   43   0.805   2.755  -2.754
    1NGb    C18   44   0.707   2.679  -2.809
    1NGb    C19   45   0.706   2.548  -2.787
    1NGb    C1A   46   0.802   2.487  -2.714
    1NGb    C1B   47   0.901   2.562  -2.655
    1NGb    C1C   48   0.899   2.700  -2.670
    1NGb    C1D   49   0.941   2.981  -2.770
    1NGb    F1E   50   0.915   3.109  -2.823
    1NGb    F1F   51   0.987   2.999  -2.642
    1NGb    F1G   52   1.029   2.923  -2.839
    1NGb    C1H   53   0.409   3.155  -2.289
    1NGb    C1I   54   0.365   3.247  -2.181
    1NGb    C1J   55   0.462   3.356  -2.172
    1NGb    C1K   56   0.226   3.306  -2.220
    1NGb    C1M   57   0.344   3.173  -2.056
    1NGb    C1N   58   0.486   2.971  -1.607
    1NGb    C1O   59   0.498   2.958  -1.465
    1NGb    H1P   60   0.754   3.105  -1.259
    1NGb    H1Q   61   0.676   3.066  -1.104
    1NGb    H1R   62   0.581   3.133  -1.231
    1NGb    H1S   63   0.490   2.786  -1.242
    1NGb    H1T   64   0.447   2.939  -1.170
    1NGb    H1U   65   0.612   2.898  -0.985
    1NGb    H1V   66   0.676   2.758  -1.076
    1NGb    H1W   67   0.715   2.760  -0.852
    1NGb    H1X   68   0.748   2.654  -0.641
    1NGb    H1Y   69   0.712   2.653  -0.425
    1NGb    H1Z   70   0.748   2.551  -0.207
    1NGb    DUM   71   0.680   2.374  -0.058
    1NGb    H21   72   0.477   2.235  -0.311
    1NGb    H22   73   0.440   2.336  -0.529
    1NGb    H23   74   0.348   2.491  -0.653
    1NGb    H24   75   0.315   2.599  -0.872
    1NGb    H25   76   0.837   2.940  -1.443
    1NGb    H26   77   0.814   2.979  -1.686
    1NGb    H27   78   0.662   2.935  -1.886
    1NGb    H28   79   0.431   3.121  -1.815
    1NGb    H29   80   0.641   2.996  -2.086
    1NGb    H2A   81   0.710   2.972  -2.294
    1NGb    H2B   82   0.513   3.064  -2.496
    1NGb    H2C   83   0.773   2.913  -2.497
    1NGb    H2D   84   0.632   2.720  -2.875
    1NGb    H2E   85   0.630   2.482  -2.827
    1NGb    H2F   86   0.799   2.380  -2.697
    1NGb    H2G   87   0.979   2.522  -2.593
    1NGb    H2H   88   0.969   2.773  -2.635
    1NGb    H2I   89   0.318   3.099  -2.309
    1NGb    H2J   90   0.433   3.206  -2.382
    1NGb    H2K   91   0.483   3.408  -2.266
    1NGb    H2M   92   0.558   3.316  -2.138
    1NGb    H2N   93   0.438   3.422  -2.089
    1NGb    H2O   94   0.145   3.234  -2.239
    1NGb    H2P   95   0.241   3.369  -2.306
    1NGb    H2Q   96   0.200   3.372  -2.137
    1NGb    H2R   97   0.264   3.101  -2.076
    1NGb    H2S   98   0.314   3.235  -1.971
    1NGb    H2T   99   0.389   2.977  -1.652
    1NGb    H2U  100   0.407   2.957  -1.408
    1NGb    C00    1   1.405   3.064  -1.212
    1NGb    N01    2   1.375   2.936  -1.272
    1NGb    C02    3   1.272   2.873  -1.190
    1NGb    C03    4   1.329   2.820  -1.056
    1NGb    O04    5   1.226   2.738  -1.003
    1NGb    C05    6   1.249   2.686  -0.878
    1NGb    C06    7   1.372   2.703  -0.812
    1NGb    C07    8   1.393   2.642  -0.688
    1NGb    C08    9   1.292   2.564  -0.630
    1NGb    C09   10   1.314   2.503  -0.497
    1NGb    C0A   11   1.401   2.561  -0.403
    1NGb    C0B   12   1.420   2.504  -0.276
    1NGb    C0C   13   1.356   2.384  -0.243
    1NGb    DUM   14   1.378   2.320  -0.123
    1NGb    C0E   15   1.269   2.325  -0.336
    1NGb    C0F   16   1.247   2.386  -0.460
    1NGb    C0G   17   1.170   2.546  -0.695
    1NGb    C0H   18   1.149   2.609  -0.818
    1NGb    C0I   19   1.363   2.943  -1.406
    1NGb    C0J   20   1.480   2.948  -1.490
    1NGb    C0K   21   1.465   2.976  -1.623
    1NGb    C0M   22   1.343   2.986  -1.683
    1NGb    C0N   23   1.334   2.997  -1.828
    1NGb    C0O   24   1.236   3.070  -1.882
    1NGb    C0P   25   1.202   3.085  -2.015
    1NGb    C0Q   26   1.288   3.042  -2.108
    1NGb    C0R   27   1.264   3.061  -2.238
    1NGb    C0S   28   1.359   3.015  -2.335
    1NGb    C0T   29   1.344   3.017  -2.465
    1NGb    C0U   30   1.438   2.967  -2.553
    1NGb    C0V   31   1.442   2.972  -2.704
    1NGb    C0W   32   1.346   3.026  -2.777
    1NGb    C0X   33   1.233   3.099  -2.725
    1NGb    N0Y   34   1.125   3.145  -2.707
    1NGb    C0Z   35   1.379   3.005  -2.906
    1NGb    C10   36   1.326   3.053  -3.025
    1NGb    C11   37   1.205   3.120  -3.029
    1NGb    N12   38   1.102   3.183  -3.041
    1NGb    C13   39   1.378   3.000  -3.148
    1NGb    N14   40   1.432   2.978  -3.254
    1NGb    O15   41   1.496   2.935  -2.915
    1NGb    C16   42   1.549   2.903  -2.782
    1NGb    C17   43   1.545   2.755  -2.754
    1NGb    C18   44   1.447   2.679  -2.809
    1NGb    C19   45   1.446   2.548  -2.787
    1NGb    C1A   46   1.542   2.487  -2.714
    1NGb    C1B   47   1.641   2.562  -2.655
    1NGb    C1C   48   1.639   2.700  -2.670
    1NGb    C1D   49   1.681   2.981  -2.770
    1NGb    F1E   50   1.655   3.109  -2.823
    1NGb    F1F   51   1.727   2.999  -2.642
    1NGb    F1G   52   1.769   2.923  -2.839
    1NGb    C1H   53   1.149   3.155  -2.289
    1NGb    C1I   54   1.105   3.247  -2.181
    1NGb    C1J   55   1.202   3.356  -2.172
    1NGb    C1K   56   0.966   3.306  -2.220
    1NGb    C1M   57   1.084   3.173  -2.056
    1NGb    C1N   58   1.226   2.971  -1.607
    1NGb    C1O   59   1.238   2.958  -1.465
    1NGb    H1P   60   1.494   3.105  -1.259
    1NGb    H1Q   61   1.416   3.066  -1.104
    1NGb    H1R   62   1.321   3.133  -1.231
    1NGb    H1S   63   1.230   2.786  -1.242
    1NGb    H1T   64   1.187   2.939  -1.170
    1NGb    H1U   65   1.352   2.898  -0.985
    1NGb    H1V   66   1.416   2.758  -1.076
    1NGb    H1W   67   1.455   2.760  -0.852
    1NGb    H1X   68   1.488   2.654  -0.641
    1NGb    H1Y   69   1.452   2.653  -0.425
    1NGb    H1Z   70   1.488   2.551  -0.207
    1NGb    DUM   71   1.420   2.374  -0.058
    1NGb    H21   72   1.217   2.235  -0.311
    1NGb    H22   73   1.180   2.336  -0.529
    1NGb    H23   74   1.088   2.491  -0.653
    1NGb    H24   75   1.055   2.599  -0.872
    1NGb    H25   76   1.577   2.940  -1.443
    1NGb    H26   77   1.554   2.979  -1.686
    1NGb    H27   78   1.402   2.935  -1.886
    1NGb    H28   79   1.171   3.121  -1.815
    1NGb    H29   80   1.381   2.996  -2.086
    1NGb    H2A   81   1.450   2.972  -2.294
    1NGb    H2B   82   1.253   3.064  -2.496
    1NGb    H2C   83   1.513   2.913  -2.497
    1NGb    H2D   84   1.372   2.720  -2.875
    1NGb    H2E   85   1.370   2.482  -2.827
    1NGb    H2F   86   1.539   2.380  -2.697
    1NGb    H2G   87   1.719   2.522  -2.593
    1NGb    H2H   88   1.709   2.773  -2.635
    1NGb    H2I   89   1.058   3.099  -2.309
    1NGb    H2J   90   1.173   3.206  -2.382
    1NGb    H2K   91   1.223   3.408  -2.266
    1NGb    H2M   92   1.298   3.316  -2.138
    1NGb    H2N   93   1.178   3.422  -2.089
    1NGb    H2O   94   0.885   3.234  -2.239
    1NGb    H2P   95   0.981   3.369  -2.306
    1NGb    H2Q   96   0.940   3.372  -2.137
    1NGb    H2R   97   1.004   3.101  -2.076
    1NGb    H2S   98   1.054   3.235  -1.971
    1NGb    H2T   99   1.129   2.977  -1.652
    1NGb    H2U  100   1.147   2.957  -1.408
    1NGb    C00    1   2.145   3.064  -1.212
    1NGb    N01    2   2.115   2.936  -1.272
    1NGb    C02    3   2.012   2.873  -1.190
    1NGb    C03    4   2.069   2.820  -1.056
    1NGb    O04    5   1.966   2.738  -1.003
    1NGb    C05    6   1.989   2.686  -0.878
    1NGb    C06    7   2.112   2.703  -0.812
    1NGb    C07    8   2.133   2.642  -0.688
    1NGb    C08    9   2.032   2.564  -0.630
    1NGb    C09   10   2.054   2.503  -0.497
    1NGb    C0A   11   2.141   2.561  -0.403
    1NGb    C0B   12   2.160   2.504  -0.276
    1NGb    C0C   13   2.096   2.384  -0.243
    1NGb    DUM   14   2.118   2.320  -0.123
    1NGb    C0E   15   2.009   2.325  -0.336
    1NGb    C0F   16   1.987   2.386  -0.460
    1NGb    C0G   17   1.910   2.546  -0.695
    1NGb    C0H   18   1.889   2.609  -0.818
    1NGb    C0I   19   2.103   2.943  -1.406
    1NGb    C0J   20   2.220   2.948  -1.490
    1NGb    C0K   21   2.205   2.976  -1.623
    1NGb    C0M   22   2.083   2.986  -1.683
    1NGb    C0N   23   2.074   2.997  -1.828
    1NGb    C0O   24   1.976   3.070  -1.882
    1NGb    C0P   25   1.942   3.085  -2.015
    1NGb    C0Q   26   2.028   3.042  -2.108
    1NGb    C0R   27   2.004   3.061  -2.238
    1NGb    C0S   28   2.099   3.015  -2.335
    1NGb    C0T   29   2.084   3.017  -2.465
    1NGb    C0U   30   2.178   2.967  -2.553
    1NGb    C0V   31   2.182   2.972  -2.704
    1NGb    C0W   32   2.086   3.026  -2.777
    1NGb    C0X   33   1.973   3.099  -2.725
    1NGb    N0Y   34   1.865   3.145  -2.707
    1NGb    C0Z   35   2.119   3.005  -2.906
    1NGb    C10   36   2.066   3.053  -3.025
    1NGb    C11   37   1.945   3.120  -3.029
    1NGb    N12   38   1.842   3.183  -3.041
    1NGb    C13   39   2.118   3.000  -3.148
    1NGb    N14   40   2.172   2.978  -3.254
    1NGb    O15   41   2.236   2.935  -2.915
    1NGb    C16   42   2.289   2.903  -2.782
    1NGb    C17   43   2.285   2.755  -2.754
    1NGb    C18   44   2.187   2.679  -2.809
    1NGb    C19   45   2.186   2.548  -2.787
    1NGb    C1A   46   2.282   2.487  -2.714
    1NGb    C1B   47   2.381   2.562  -2.655
    1NGb    C1C   48   2.379   2.700  -2.670
    1NGb    C1D   49   2.421   2.981  -2.770
    1NGb    F1E   50   2.395   3.109  -2.823
    1NGb    F1F   51   2.467   2.999  -2.642
    1NGb    F1G   52   2.509   2.923  -2.839
    1NGb    C1H   53   1.889   3.155  -2.289
    1NGb    C1I   54   1.845   3.247  -2.181
    1NGb    C1J   55   1.942   3.356  -2.172
    1NGb    C1K   56   1.706   3.306  -2.220
    1NGb    C1M   57   1.824   3.173  -2.056
    1NGb    C1N   58   1.966   2.971  -1.607
    1NGb    C1O   59   1.978   2.958  -1.465
    1NGb    H1P   60   2.234   3.105  -1.259
    1NGb    H1Q   61   2.156   3.066  -1.104
    1NGb    H1R   62   2.061   3.133  -1.231
    1NGb    H1S   63   1.970   2.786  -1.242
    1NGb    H1T   64   1.927   2.939  -1.170
    1NGb    H1U   65   2.092   2.898  -0.985
    1NGb    H1V   66   2.156   2.758  -1.076
    1NGb    H1W   67   2.195   2.760  -0.852
    1NGb    H1X   68   2.228   2.654  -0.641
    1NGb    H1Y   69   2.192   2.653  -0.425
    1NGb    H1Z   70   2.228   2.551  -0.207
    1NGb    DUM   71   2.160   2.374  -0.058
    1NGb    H21   72   1.957   2.235  -0.311
    1NGb    H22   73   1.920   2.336  -0.529
    1NGb    H23   74   1.828   2.491  -0.653
    1NGb    H24   75   1.795   2.599  -0.872
    1NGb    H25   76   2.317   2.940  -1.443
    1NGb    H26   77   2.294   2.979  -1.686
    1NGb    H27   78   2.142   2.935  -1.886
    1NGb    H28   79   1.911   3.121  -1.815
    1NGb    H29   80   2.121   2.996  -2.086
    1NGb    H2A   81   2.190   2.972  -2.294
    1NGb    H2B   82   1.993   3.064  -2.496
    1NGb    H2C   83   2.253   2.913  -2.497
    1NGb    H2D   84   2.112   2.720  -2.875
    1NGb    H2E   85   2.110   2.482  -2.827
    1NGb    H2F   86   2.279   2.380  -2.697
    1NGb    H2G   87   2.459   2.522  -2.593
    1NGb    H2H   88   2.449   2.773  -2.635
    1NGb    H2I   89   1.798   3.099  -2.309
    1NGb    H2J   90   1.913   3.206  -2.382
    1NGb    H2K   91   1.963   3.408  -2.266
    1NGb    H2M   92   2.038   3.316  -2.138
    1NGb    H2N   93   1.918   3.422  -2.089
    1NGb    H2O   94   1.625   3.234  -2.239
    1NGb    H2P   95   1.721   3.369  -2.306
    1NGb    H2Q   96   1.680   3.372  -2.137
    1NGb    H2R   97   1.744   3.101  -2.076
    1NGb    H2S   98   1.794   3.235  -1.971
    1NGb    H2T   99   1.869   2.977  -1.652
    1NGb    H2U  100   1.887   2.957  -1.408
    1NGb    C00    1   2.884   3.064  -1.212
    1NGb    N01    2   2.854   2.936  -1.272
    1NGb    C02    3   2.751   2.873  -1.190
    1NGb    C03    4   2.808   2.820  -1.056
    1NGb    O04    5   2.705   2.738  -1.003
    1NGb    C05    6   2.728   2.686  -0.878
    1NGb    C06    7   2.851   2.703  -0.812
    1NGb    C07    8   2.872   2.642  -0.688
    1NGb    C08    9   2.771   2.564  -0.630
    1NGb    C09   10   2.793   2.503  -0.497
    1NGb    C0A   11   2.880   2.561  -0.403
    1NGb    C0B   12   2.899   2.504  -0.276
    1NGb    C0C   13   2.835   2.384  -0.243
    1NGb    DUM   14   2.857   2.320  -0.123
    1NGb    C0E   15   2.748   2.325  -0.336
    1NGb    C0F   16   2.726   2.386  -0.460
    1NGb    C0G   17   2.649   2.546  -0.695
    1NGb    C0H   18   2.628   2.609  -0.818
    1NGb    C0I   19   2.842   2.943  -1.406
    1NGb    C0J   20   2.959   2.948  -1.490
    1NGb    C0K   21   2.944   2.976  -1.623
    1NGb    C0M   22   2.822   2.986  -1.683
    1NGb    C0N   23   2.813   2.997  -1.828
    1NGb    C0O   24   2.715   3.070  -1.882
    1NGb    C0P   25   2.681   3.085  -2.015
    1NGb    C0Q   26   2.767   3.042  -2.108
    1NGb    C0R   27   2.743   3.061  -2.238
    1NGb    C0S   28   2.838   3.015  -2.335
    1NGb    C0T   29   2.823   3.017  -2.465
    1NGb    C0U   30   2.917   2.967  -2.553
    1NGb    C0V   31   2.921   2.972  -2.704
    1NGb    C0W   32   2.825   3.026  -2.777
    1NGb    C0X   33   2.712   3.099  -2.725
    1NGb    N0Y   34   2.604   3.145  -2.707
    1NGb    C0Z   35   2.858   3.005  -2.906
    1NGb    C10   36   2.805   3.053  -3.025
    1NGb    C11   37   2.684   3.120  -3.029
    1NGb    N12   38   2.581   3.183  -3.041
    1NGb    C13   39   2.857   3.000  -3.148
    1NGb    N14   40   2.911   2.978  -3.254
    1NGb    O15   41   2.975   2.935  -2.915
    1NGb    C16   42   3.028   2.903  -2.782
    1NGb    C17   43   3.024   2.755  -2.754
    1NGb    C18   44   2.926   2.679  -2.809
    1NGb    C19   45   2.925   2.548  -2.787
    1NGb    C1A   46   3.021   2.487  -2.714
    1NGb    C1B   47   3.120   2.562  -2.655
    1NGb    C1C   48   3.118   2.700  -2.670
    1NGb    C1D   49   3.160   2.981  -2.770
    1NGb    F1E   50   3.134   3.109  -2.823
    1NGb    F1F   51   3.206   2.999  -2.642
    1NGb    F1G   52   3.248   2.923  -2.839
    1NGb    C1H   53   2.628   3.155  -2.289
    1NGb    C1I   54   2.584   3.247  -2.181
    1NGb    C1J   55   2.681   3.356  -2.172
    1NGb    C1K   56   2.445   3.306  -2.220
    1NGb    C1M   57   2.563   3.173  -2.056
    1NGb    C1N   58   2.705   2.971  -1.607
    1NGb    C1O   59   2.717   2.958  -1.465
    1NGb    H1P   60   2.973   3.105  -1.259
    1NGb    H1Q   61   2.895   3.066  -1.104
    1NGb    H1R   62   2.800   3.133  -1.231
    1NGb    H1S   63   2.709   2.786  -1.242
    1NGb    H1T   64   2.666   2.939  -1.170
    1NGb    H1U   65   2.831   2.898  -0.985
    1NGb    H1V   66   2.895   2.758  -1.076
    1NGb    H1W   67   2.934   2.760  -0.852
    1NGb    H1X   68   2.967   2.654  -0.641
    1NGb    H1Y   69   2.931   2.653  -0.425
    1NGb    H1Z   70   2.967   2.551  -0.207
    1NGb    DUM   71   2.899   2.374  -0.058
    1NGb    H21   72   2.696   2.235  -0.311
    1NGb    H22   73   2.659   2.336  -0.529
    1NGb    H23   74   2.567   2.491  -0.653
    1NGb    H24   75   2.534   2.599  -0.872
    1NGb    H25   76   3.056   2.940  -1.443
    1NGb    H26   77   3.033   2.979  -1.686
    1NGb    H27   78   2.881   2.935  -1.886
    1NGb    H28   79   2.650   3.121  -1.815
    1NGb    H29   80   2.860   2.996  -2.086
    1NGb    H2A   81   2.929   2.972  -2.294
    1NGb    H2B   82   2.732   3.064  -2.496
    1NGb    H2C   83   2.992   2.913  -2.497
    1NGb    H2D   84   2.851   2.720  -2.875
    1NGb    H2E   85   2.849   2.482  -2.827
    1NGb    H2F   86   3.018   2.380  -2.697
    1NGb    H2G   87   3.198   2.522  -2.593
    1NGb    H2H   88   3.188   2.773  -2.635
    1NGb    H2I   89   2.537   3.099  -2.309
    1NGb    H2J   90   2.652   3.206  -2.382
    1NGb    H2K   91   2.702   3.408  -2.266
    1NGb    H2M   92   2.777   3.316  -2.138
    1NGb    H2N   93   2.657   3.422  -2.089
    1NGb    H2O   94   2.364   3.234  -2.239
    1NGb    H2P   95   2.460   3.369  -2.306
    1NGb    H2Q   96   2.419   3.372  -2.137
    1NGb    H2R   97   2.483   3.101  -2.076
    1NGb    H2S   98   2.533   3.235  -1.971
    1NGb    H2T   99   2.608   2.977  -1.652
    1NGb    H2U  100   2.626   2.957  -1.408
    1NGb    C00    1   3.624   3.064  -1.212
    1NGb    N01    2   3.594   2.936  -1.272
    1NGb    C02    3   3.491   2.873  -1.190
    1NGb    C03    4   3.548   2.820  -1.056
    1NGb    O04    5   3.445   2.738  -1.003
    1NGb    C05    6   3.468   2.686  -0.878
    1NGb    C06    7   3.591   2.703  -0.812
    1NGb    C07    8   3.612   2.642  -0.688
    1NGb    C08    9   3.511   2.564  -0.630
    1NGb    C09   10   3.533   2.503  -0.497
    1NGb    C0A   11   3.620   2.561  -0.403
    1NGb    C0B   12   3.639   2.504  -0.276
    1NGb    C0C   13   3.575   2.384  -0.243
    1NGb    DUM   14   3.597   2.320  -0.123
    1NGb    C0E   15   3.488   2.325  -0.336
    1NGb    C0F   16   3.466   2.386  -0.460
    1NGb    C0G   17   3.389   2.546  -0.695
    1NGb    C0H   18   3.368   2.609  -0.818
    1NGb    C0I   19   3.582   2.943  -1.406
    1NGb    C0J   20   3.699   2.948  -1.490
    1NGb    C0K   21   3.684   2.976  -1.623
    1NGb    C0M   22   3.562   2.986  -1.683
    1NGb    C0N   23   3.553   2.997  -1.828
    1NGb    C0O   24   3.455   3.070  -1.882
    1NGb    C0P   25   3.421   3.085  -2.015
    1NGb    C0Q   26   3.507   3.042  -2.108
    1NGb    C0R   27   3.483   3.061  -2.238
    1NGb    C0S   28   3.578   3.015  -2.335
    1NGb    C0T   29   3.563   3.017  -2.465
    1NGb    C0U   30   3.657   2.967  -2.553
    1NGb    C0V   31   3.661   2.972  -2.704
    1NGb    C0W   32   3.565   3.026  -2.777
    1NGb    C0X   33   3.452   3.099  -2.725
    1NGb    N0Y   34   3.344   3.145  -2.707
    1NGb    C0Z   35   3.598   3.005  -2.906
    1NGb    C10   36   3.545   3.053  -3.025
    1NGb    C11   37   3.424   3.120  -3.029
    1NGb    N12   38   3.321   3.183  -3.041
    1NGb    C13   39   3.597   3.000  -3.148
    1NGb    N14   40   3.651   2.978  -3.254
    1NGb    O15   41   3.715   2.935  -2.915
    1NGb    C16   42   3.768   2.903  -2.782
    1NGb    C17   43   3.764   2.755  -2.754
    1NGb    C18   44   3.666   2.679  -2.809
    1NGb    C19   45   3.665   2.548  -2.787
    1NGb    C1A   46   3.761   2.487  -2.714
    1NGb    C1B   47   3.860   2.562  -2.655
    1NGb    C1C   48   3.858   2.700  -2.670
    1NGb    C1D   49   3.900   2.981  -2.770
    1NGb    F1E   50   3.874   3.109  -2.823
    1NGb    F1F   51   3.946   2.999  -2.642
    1NGb    F1G   52   3.988   2.923  -2.839
    1NGb    C1H   53   3.368   3.155  -2.289
    1NGb    C1I   54   3.324   3.247  -2.181
    1NGb    C1J   55   3.421   3.356  -2.172
    1NGb    C1K   56   3.185   3.306  -2.220
    1NGb    C1M   57   3.303   3.173  -2.056
    1NGb    C1N   58   3.445   2.971  -1.607
    1NGb    C1O   59   3.457   2.958  -1.465
    1NGb    H1P   60   3.713   3.105  -1.259
    1NGb    H1Q   61   3.635   3.066  -1.104
    1NGb    H1R   62   3.540   3.133  -1.231
    1NGb    H1S   63   3.449   2.786  -1.242
    1NGb    H1T   64   3.406   2.939  -1.170
    1NGb    H1U   65   3.571   2.898  -0.985
    1NGb    H1V   66   3.635   2.758  -1.076
    1NGb    H1W   67   3.674   2.760  -0.852
    1NGb    H1X   68   3.707   2.654  -0.641
    1NGb    H1Y   69   3.671   2.653  -0.425
    1NGb    H1Z   70   3.707   2.551  -0.207
    1NGb    DUM   71   3.639   2.374  -0.058
    1NGb    H21   72   3.436   2.235  -0.311
    1NGb    H22   73   3.399   2.336  -0.529
    1NGb    H23   74   3.307   2.491  -0.653
    1NGb    H24   75   3.274   2.599  -0.872
    1NGb    H25   76   3.796   2.940  -1.443
    1NGb    H26   77   3.773   2.979  -1.686
    1NGb    H27   78   3.621   2.935  -1.886
    1NGb    H28   79   3.390   3.121  -1.815
    1NGb    H29   80   3.600   2.996  -2.086
    1NGb    H2A   81   3.669   2.972  -2.294
    1NGb    H2B   82   3.472   3.064  -2.496
    1NGb    H2C   83   3.732   2.913  -2.497
    1NGb    H2D   84   3.591   2.720  -2.875
    1NGb    H2E   85   3.589   2.482  -2.827
    1NGb    H2F   86   3.758   2.380  -2.697
    1NGb    H2G   87   3.938   2.522  -2.593
    1NGb    H2H   88   3.928   2.773  -2.635
    1NGb    H2I   89   3.277   3.099  -2.309
    1NGb    H2J   90   3.392   3.206  -2.382
    1NGb    H2K   91   3.442   3.408  -2.266
    1NGb    H2M   92   3.517   3.316  -2.138
    1NGb    H2N   93   3.397   3.422  -2.089
    1NGb    H2O   94   3.104   3.234  -2.239
    1NGb    H2P   95   3.200   3.369  -2.306
    1NGb    H2Q   96   3.159   3.372  -2.137
    1NGb    H2R   97   3.223   3.101  -2.076
    1NGb    H2S   98   3.273   3.235  -1.971
    1NGb    H2T   99   3.348   2.977  -1.652
    1NGb    H2U  100   3.366   2.957  -1.408
    1NGb    C00    1   4.364   3.064  -1.212
    1NGb    N01    2   4.334   2.936  -1.272
    1NGb    C02    3   4.231   2.873  -1.190
    1NGb    C03    4   4.288   2.820  -1.056
    1NGb    O04    5   4.185   2.738  -1.003
    1NGb    C05    6   4.208   2.686  -0.878
    1NGb    C06    7   4.331   2.703  -0.812
    1NGb    C07    8   4.352   2.642  -0.688
    1NGb    C08    9   4.251   2.564  -0.630
    1NGb    C09   10   4.273   2.503  -0.497
    1NGb    C0A   11   4.360   2.561  -0.403
    1NGb    C0B   12   4.379   2.504  -0.276
    1NGb    C0C   13   4.315   2.384  -0.243
    1NGb    DUM   14   4.337   2.320  -0.123
    1NGb    C0E   15   4.228   2.325  -0.336
    1NGb    C0F   16   4.206   2.386  -0.460
    1NGb    C0G   17   4.129   2.546  -0.695
    1NGb    C0H   18   4.108   2.609  -0.818
    1NGb    C0I   19   4.322   2.943  -1.406
    1NGb    C0J   20   4.439   2.948  -1.490
    1NGb    C0K   21   4.424   2.976  -1.623
    1NGb    C0M   22   4.302   2.986  -1.683
    1NGb    C0N   23   4.293   2.997  -1.828
    1NGb    C0O   24   4.195   3.070  -1.882
    1NGb    C0P   25   4.161   3.085  -2.015
    1NGb    C0Q   26   4.247   3.042  -2.108
    1NGb    C0R   27   4.223   3.061  -2.238
    1NGb    C0S   28   4.318   3.015  -2.335
    1NGb    C0T   29   4.303   3.017  -2.465
    1NGb    C0U   30   4.397   2.967  -2.553
    1NGb    C0V   31   4.401   2.972  -2.704
    1NGb    C0W   32   4.305   3.026  -2.777
    1NGb    C0X   33   4.192   3.099  -2.725
    1NGb    N0Y   34   4.084   3.145  -2.707
    1NGb    C0Z   35   4.338   3.005  -2.906
    1NGb    C10   36   4.285   3.053  -3.025
    1NGb    C11   37   4.164   3.120  -3.029
    1NGb    N12   38   4.061   3.183  -3.041
    1NGb    C13   39   4.337   3.000  -3.148
    1NGb    N14   40   4.391   2.978  -3.254
    1NGb    O15   41   4.455   2.935  -2.915
    1NGb    C16   42   4.508   2.903  -2.782
    1NGb    C17   43   4.504   2.755  -2.754
    1NGb    C18   44   4.406   2.679  -2.809
    1NGb    C19   45   4.405   2.548  -2.787
    1NGb    C1A   46   4.501   2.487  -2.714
    1NGb    C1B   47   4.600   2.562  -2.655
    1NGb    C1C   48   4.598   2.700  -2.670
    1NGb    C1D   49   4.640   2.981  -2.770
    1NGb    F1E   50   4.614   3.109  -2.823
    1NGb    F1F   51   4.686   2.999  -2.642
    1NGb    F1G   52   4.728   2.923  -2.839
    1NGb    C1H   53   4.108   3.155  -2.289
    1NGb    C1I   54   4.064   3.247  -2.181
    1NGb    C1J   55   4.161   3.356  -2.172
    1NGb    C1K   56   3.925   3.306  -2.220
    1NGb    C1M   57   4.043   3.173  -2.056
    1NGb    C1N   58   4.185   2.971  -1.607
    1NGb    C1O   59   4.197   2.958  -1.465
    1NGb    H1P   60   4.453   3.105  -1.259
    1NGb    H1Q   61   4.375   3.066  -1.104
    1NGb    H1R   62   4.280   3.133  -1.231
    1NGb    H1S   63   4.189   2.786  -1.242
    1NGb    H1T   64   4.146   2.939  -1.170
    1NGb    H1U   65   4.311   2.898  -0.985
    1NGb    H1V   66   4.375   2.758  -1.076
    1NGb    H1W   67   4.414   2.760  -0.852
    1NGb    H1X   68   4.447   2.654  -0.641
    1NGb    H1Y   69   4.411   2.653  -0.425
    1NGb    H1Z   70   4.447   2.551  -0.207
    1NGb    DUM   71   4.379   2.374  -0.058
    1NGb    H21   72   4.176   2.235  -0.311
    1NGb    H22   73   4.139   2.336  -0.529
    1NGb    H23   74   4.047   2.491  -0.653
    1NGb    H24   75   4.014   2.599  -0.872
    1NGb    H25   76   4.536   2.940  -1.443
    1NGb    H26   77   4.513   2.979  -1.686
    1NGb    H27   78   4.361   2.935  -1.886
    1NGb    H28   79   4.130   3.121  -1.815
    1NGb    H29   80   4.340   2.996  -2.086
    1NGb    H2A   81   4.409   2.972  -2.294
    1NGb    H2B   82   4.212   3.064  -2.496
    1NGb    H2C   83   4.472   2.913  -2.497
    1NGb    H2D   84   4.331   2.720  -2.875
    1NGb    H2E   85   4.329   2.482  -2.827
    1NGb    H2F   86   4.498   2.380  -2.697
    1NGb    H2G   87   4.678   2.522  -2.593
    1NGb    H2H   88   4.668   2.773  -2.635
    1NGb    H2I   89   4.017   3.099  -2.309
    1NGb    H2J   90   4.132   3.206  -2.382
    1NGb    H2K   91   4.182   3.408  -2.266
    1NGb    H2M   92   4.257   3.316  -2.138
    1NGb    H2N   93   4.137   3.422  -2.089
    1NGb    H2O   94   3.844   3.234  -2.239
    1NGb    H2P   95   3.940   3.369  -2.306
    1NGb    H2Q   96   3.899   3.372  -2.137
    1NGb    H2R   97   3.963   3.101  -2.076
    1NGb    H2S   98   4.013   3.235  -1.971
    1NGb    H2T   99   4.088   2.977  -1.652
    1NGb    H2U  100   4.106   2.957  -1.408
    1NGb    C00    1   5.104   3.064  -1.212
    1NGb    N01    2   5.074   2.936  -1.272
    1NGb    C02    3   4.971   2.873  -1.190
    1NGb    C03    4   5.028   2.820  -1.056
    1NGb    O04    5   4.925   2.738  -1.003
    1NGb    C05    6   4.948   2.686  -0.878
    1NGb    C06    7   5.071   2.703  -0.812
    1NGb    C07    8   5.092   2.642  -0.688
    1NGb    C08    9   4.991   2.564  -0.630
    1NGb    C09   10   5.013   2.503  -0.497
    1NGb    C0A   11   5.100   2.561  -0.403
    1NGb    C0B   12   5.119   2.504  -0.276
    1NGb    C0C   13   5.055   2.384  -0.243
    1NGb    DUM   14   5.077   2.320  -0.123
    1NGb    C0E   15   4.968   2.325  -0.336
    1NGb    C0F   16   4.946   2.386  -0.460
    1NGb    C0G   17   4.869   2.546  -0.695
    1NGb    C0H   18   4.848   2.609  -0.818
    1NGb    C0I   19   5.062   2.943  -1.406
    1NGb    C0J   20   5.179   2.948  -1.490
    1NGb    C0K   21   5.164   2.976  -1.623
    1NGb    C0M   22   5.042   2.986  -1.683
    1NGb    C0N   23   5.033   2.997  -1.828
    1NGb    C0O   24   4.935   3.070  -1.882
    1NGb    C0P   25   4.901   3.085  -2.015
    1NGb    C0Q   26   4.987   3.042  -2.108
    1NGb    C0R   27   4.963   3.061  -2.238
    1NGb    C0S   28   5.058   3.015  -2.335
    1NGb    C0T   29   5.043   3.017  -2.465
    1NGb    C0U   30   5.137   2.967  -2.553
    1NGb    C0V   31   5.141   2.972  -2.704
    1NGb    C0W   32   5.045   3.026  -2.777
    1NGb    C0X   33   4.932   3.099  -2.725
    1NGb    N0Y   34   4.824   3.145  -2.707
    1NGb    C0Z   35   5.078   3.005  -2.906
    1NGb    C10   36   5.025   3.053  -3.025
    1NGb    C11   37   4.904   3.120  -3.029
    1NGb    N12   38   4.801   3.183  -3.041
    1NGb    C13   39   5.077   3.000  -3.148
    1NGb    N14   40   5.131   2.978  -3.254
    1NGb    O15   41   5.195   2.935  -2.915
    1NGb    C16   42   5.248   2.903  -2.782
    1NGb    C17   43   5.244   2.755  -2.754
    1NGb    C18   44   5.146   2.679  -2.809
    1NGb    C19   45   5.145   2.548  -2.787
    1NGb    C1A   46   5.241   2.487  -2.714
    1NGb    C1B   47   5.340   2.562  -2.655
    1NGb    C1C   48   5.338   2.700  -2.670
    1NGb    C1D   49   5.380   2.981  -2.770
    1NGb    F1E   50   5.354   3.109  -2.823
    1NGb    F1F   51   5.426   2.999  -2.642
    1NGb    F1G   52   5.468   2.923  -2.839
    1NGb    C1H   53   4.848   3.155  -2.289
    1NGb    C1I   54   4.804   3.247  -2.181
    1NGb    C1J   55   4.901   3.356  -2.172
    1NGb    C1K   56   4.665   3.306  -2.220
    1NGb    C1M   57   4.783   3.173  -2.056
    1NGb    C1N   58   4.925   2.971  -1.607
    1NGb    C1O   59   4.937   2.958  -1.465
    1NGb    H1P   60   5.193   3.105  -1.259
    1NGb    H1Q   61   5.115   3.066  -1.104
    1NGb    H1R   62   5.020   3.133  -1.231
    1NGb    H1S   63   4.929   2.786  -1.242
    1NGb    H1T   64   4.886   2.939  -1.170
    1NGb    H1U   65   5.051   2.898  -0.985
    1NGb    H1V   66   5.115   2.758  -1.076
    1NGb    H1W   67   5.154   2.760  -0.852
    1NGb    H1X   68   5.187   2.654  -0.641
    1NGb    H1Y   69   5.151   2.653  -0.425
    1NGb    H1Z   70   5.187   2.551  -0.207
    1NGb    DUM   71   5.119   2.374  -0.058
    1NGb    H21   72   4.916   2.235  -0.311
    1NGb    H22   73   4.879   2.336  -0.529
    1NGb    H23   74   4.787   2.491  -0.653
    1NGb    H24   75   4.754   2.599  -0.872
    1NGb    H25   76   5.276   2.940  -1.443
    1NGb    H26   77   5.253   2.979  -1.686
    1NGb    H27   78   5.101   2.935  -1.886
    1NGb    H28   79   4.870   3.121  -1.815
    1NGb    H29   80   5.080   2.996  -2.086
    1NGb    H2A   81   5.149   2.972  -2.294
    1NGb    H2B   82   4.952   3.064  -2.496
    1NGb    H2C   83   5.212   2.913  -2.497
    1NGb    H2D   84   5.071   2.720  -2.875
    1NGb    H2E   85   5.069   2.482  -2.827
    1NGb    H2F   86   5.238   2.380  -2.697
    1NGb    H2G   87   5.418   2.522  -2.593
    1NGb    H2H   88   5.408   2.773  -2.635
    1NGb    H2I   89   4.757   3.099  -2.309
    1NGb    H2J   90   4.872   3.206  -2.382
    1NGb    H2K   91   4.922   3.408  -2.266
    1NGb    H2M   92   4.997   3.316  -2.138
    1NGb    H2N   93   4.877   3.422  -2.089
    1NGb    H2O   94   4.584   3.234  -2.239
    1NGb    H2P   95   4.680   3.369  -2.306
    1NGb    H2Q   96   4.639   3.372  -2.137
    1NGb    H2R   97   4.703   3.101  -2.076
    1NGb    H2S   98   4.753   3.235  -1.971
    1NGb    H2T   99   4.828   2.977  -1.652
    1NGb    H2U  100   4.846   2.957  -1.408
    1NGb    C00    1  -0.075   3.803  -1.212
    1NGb    N01    2  -0.105   3.675  -1.272
    1NGb    C02    3  -0.208   3.612  -1.190
    1NGb    C03    4  -0.151   3.559  -1.056
    1NGb    O04    5  -0.254   3.477  -1.003
    1NGb    C05    6  -0.231   3.425  -0.878
    1NGb    C06    7  -0.108   3.442  -0.812
    1NGb    C07    8  -0.087   3.381  -0.688
    1NGb    C08    9  -0.188   3.303  -0.630
    1NGb    C09   10  -0.166   3.242  -0.497
    1NGb    C0A   11  -0.079   3.300  -0.403
    1NGb    C0B   12  -0.060   3.243  -0.276
    1NGb    C0C   13  -0.124   3.123  -0.243
    1NGb    DUM   14  -0.102   3.059  -0.123
    1NGb    C0E   15  -0.211   3.064  -0.336
    1NGb    C0F   16  -0.233   3.125  -0.460
    1NGb    C0G   17  -0.310   3.285  -0.695
    1NGb    C0H   18  -0.331   3.348  -0.818
    1NGb    C0I   19  -0.117   3.682  -1.406
    1NGb    C0J   20   0.000   3.687  -1.490
    1NGb    C0K   21  -0.015   3.715  -1.623
    1NGb    C0M   22  -0.137   3.725  -1.683
    1NGb    C0N   23  -0.146   3.736  -1.828
    1NGb    C0O   24  -0.244   3.809  -1.882
    1NGb    C0P   25  -0.278   3.824  -2.015
    1NGb    C0Q   26  -0.192   3.781  -2.108
    1NGb    C0R   27  -0.216   3.800  -2.238
    1NGb    C0S   28  -0.121   3.754  -2.335
    1NGb    C0T   29  -0.136   3.756  -2.465
    1NGb    C0U   30  -0.042   3.706  -2.553
    1NGb    C0V   31  -0.038   3.711  -2.704
    1NGb    C0W   32  -0.134   3.765  -2.777
    1NGb    C0X   33  -0.247   3.838  -2.725
    1NGb    N0Y   34  -0.355   3.884  -2.707
    1NGb    C0Z   35  -0.101   3.744  -2.906
    1NGb    C10   36  -0.154   3.792  -3.025
    1NGb    C11   37  -0.275   3.859  -3.029
    1NGb    N12   38  -0.378   3.922  -3.041
    1NGb    C13   39  -0.102   3.739  -3.148
    1NGb    N14   40  -0.048   3.717  -3.254
    1NGb    O15   41   0.016   3.674  -2.915
    1NGb    C16   42   0.069   3.642  -2.782
    1NGb    C17   43   0.065   3.494  -2.754
    1NGb    C18   44  -0.033   3.418  -2.809
    1NGb    C19   45  -0.034   3.287  -2.787
    1NGb    C1A   46   0.062   3.226  -2.714
    1NGb    C1B   47   0.161   3.301  -2.655
    1NGb    C1C   48   0.159   3.439  -2.670
    1NGb    C1D   49   0.201   3.720  -2.770
    1NGb    F1E   50   0.175   3.848  -2.823
    1NGb    F1F   51   0.247   3.738  -2.642
    1NGb    F1G   52   0.289   3.662  -2.839
    1NGb    C1H   53  -0.331   3.894  -2.289
    1NGb    C1I   54  -0.375   3.986  -2.181
    1NGb    C1J   55  -0.278   4.095  -2.172
    1NGb    C1K   56  -0.514   4.045  -2.220
    1NGb    C1M   57  -0.396   3.912  -2.056
    1NGb    C1N   58  -0.254   3.710  -1.607
    1NGb    C1O   59  -0.242   3.697  -1.465
    1NGb    H1P   60   0.014   3.844  -1.259
    1NGb    H1Q   61  -0.064   3.805  -1.104
    1NGb    H1R   62  -0.159   3.872  -1.231
    1NGb    H1S   63  -0.250   3.525  -1.242
    1NGb    H1T   64  -0.293   3.678  -1.170
    1NGb    H1U   65  -0.128   3.637  -0.985
    1NGb    H1V   66  -0.064   3.497  -1.076
    1NGb    H1W   67  -0.025   3.499  -0.852
    1NGb    H1X   68   0.008   3.393  -0.641
    1NGb    H1Y   69  -0.028   3.392  -0.425
    1NGb    H1Z   70   0.008   3.290  -0.207
    1NGb    DUM   71  -0.060   3.113  -0.058
    1NGb    H21   72  -0.263   2.974  -0.311
    1NGb    H22   73  -0.300   3.075  -0.529
    1NGb    H23   74  -0.392   3.230  -0.653
    1NGb    H24   75  -0.425   3.338  -0.872
    1NGb    H25   76   0.097   3.679  -1.443
    1NGb    H26   77   0.074   3.718  -1.686
    1NGb    H27   78  -0.078   3.674  -1.886
    1NGb    H28   79  -0.309   3.860  -1.815
    1NGb    H29   80  -0.099   3.735  -2.086
    1NGb    H2A   81  -0.030   3.711  -2.294
    1NGb    H2B   82  -0.227   3.803  -2.496
    1NGb    H2C   83   0.033   3.652  -2.497
    1NGb    H2D   84  -0.108   3.459  -2.875
    1NGb    H2E   85  -0.110   3.221  -2.827
    1NGb    H2F   86   0.059   3.119  -2.697
    1NGb    H2G   87   0.239   3.261  -2.593
    1NGb    H2H   88   0.229   3.512  -2.635
    1NGb    H2I   89  -0.422   3.838  -2.309
    1NGb    H2J   90  -0.307   3.945  -2.382
    1NGb    H2K   91  -0.257   4.147  -2.266
    1NGb    H2M   92  -0.182   4.055  -2.138
    1NGb    H2N   93  -0.302   4.161  -2.089
    1NGb    H2O   94  -0.595   3.973  -2.239
    1NGb    H2P   95  -0.499   4.108  -2.306
    1NGb    H2Q   96  -0.540   4.111  -2.137
    1NGb    H2R   97  -0.476   3.840  -2.076
    1NGb    H2S   98  -0.426   3.974  -1.971
    1NGb    H2T   99  -0.351   3.716  -1.652
    1NGb    H2U  100  -0.333   3.696  -1.408
    1NGb    C00    1   0.665   3.803  -1.212
    1NGb    N01    2   0.635   3.675  -1.272
    1NGb    C02    3   0.532   3.612  -1.190
    1NGb    C03    4   0.589   3.559  -1.056
    1NGb    O04    5   0.486   3.477  -1.003
    1NGb    C05    6   0.509   3.425  -0.878
    1NGb    C06    7   0.632   3.442  -0.812
    1NGb    C07    8   0.653   3.381  -0.688
    1NGb    C08    9   0.552   3.303  -0.630
    1NGb    C09   10   0.574   3.242  -0.497
    1NGb    C0A   11   0.661   3.300  -0.403
    1NGb    C0B   12   0.680   3.243  -0.276
    1NGb    C0C   13   0.616   3.123  -0.243
    1NGb    DUM   14   0.638   3.059  -0.123
    1NGb    C0E   15   0.529   3.064  -0.336
    1NGb    C0F   16   0.507   3.125  -0.460
    1NGb    C0G   17   0.430   3.285  -0.695
    1NGb    C0H   18   0.409   3.348  -0.818
    1NGb    C0I   19   0.623   3.682  -1.406
    1NGb    C0J   20   0.740   3.687  -1.490
    1NGb    C0K   21   0.725   3.715  -1.623
    1NGb    C0M   22   0.603   3.725  -1.683
    1NGb    C0N   23   0.594   3.736  -1.828
    1NGb    C0O   24   0.496   3.809  -1.882
    1NGb    C0P   25   0.462   3.824  -2.015
    1NGb    C0Q   26   0.548   3.781  -2.108
    1NGb    C0R   27   0.524   3.800  -2.238
    1NGb    C0S   28   0.619   3.754  -2.335
    1NGb    C0T   29   0.604   3.756  -2.465
    1NGb    C0U   30   0.698   3.706  -2.553
    1NGb    C0V   31   0.702   3.711  -2.704
    1NGb    C0W   32   0.606   3.765  -2.777
    1NGb    C0X   33   0.493   3.838  -2.725
    1NGb    N0Y   34   0.385   3.884  -2.707
    1NGb    C0Z   35   0.639   3.744  -2.906
    1NGb    C10   36   0.586   3.792  -3.025
    1NGb    C11   37   0.465   3.859  -3.029
    1NGb    N12   38   0.362   3.922  -3.041
    1NGb    C13   39   0.638   3.739  -3.148
    1NGb    N14   40   0.692   3.717  -3.254
    1NGb    O15   41   0.756   3.674  -2.915
    1NGb    C16   42   0.809   3.642  -2.782
    1NGb    C17   43   0.805   3.494  -2.754
    1NGb    C18   44   0.707   3.418  -2.809
    1NGb    C19   45   0.706   3.287  -2.787
    1NGb    C1A   46   0.802   3.226  -2.714
    1NGb    C1B   47   0.901   3.301  -2.655
    1NGb    C1C   48   0.899   3.439  -2.670
    1NGb    C1D   49   0.941   3.720  -2.770
    1NGb    F1E   50   0.915   3.848  -2.823
    1NGb    F1F   51   0.987   3.738  -2.642
    1NGb    F1G   52   1.029   3.662  -2.839
    1NGb    C1H   53   0.409   3.894  -2.289
    1NGb    C1I   54   0.365   3.986  -2.181
    1NGb    C1J   55   0.462   4.095  -2.172
    1NGb    C1K   56   0.226   4.045  -2.220
    1NGb    C1M   57   0.344   3.912  -2.056
    1NGb    C1N   58   0.486   3.710  -1.607
    1NGb    C1O   59   0.498   3.697  -1.465
    1NGb    H1P   60   0.754   3.844  -1.259
    1NGb    H1Q   61   0.676   3.805  -1.104
    1NGb    H1R   62   0.581   3.872  -1.231
    1NGb    H1S   63   0.490   3.525  -1.242
    1NGb    H1T   64   0.447   3.678  -1.170
    1NGb    H1U   65   0.612   3.637  -0.985
    1NGb    H1V   66   0.676   3.497  -1.076
    1NGb    H1W   67   0.715   3.499  -0.852
    1NGb    H1X   68   0.748   3.393  -0.641
    1NGb    H1Y   69   0.712   3.392  -0.425
    1NGb    H1Z   70   0.748   3.290  -0.207
    1NGb    DUM   71   0.680   3.113  -0.058
    1NGb    H21   72   0.477   2.974  -0.311
    1NGb    H22   73   0.440   3.075  -0.529
    1NGb    H23   74   0.348   3.230  -0.653
    1NGb    H24   75   0.315   3.338  -0.872
    1NGb    H25   76   0.837   3.679  -1.443
    1NGb    H26   77   0.814   3.718  -1.686
    1NGb    H27   78   0.662   3.674  -1.886
    1NGb    H28   79   0.431   3.860  -1.815
    1NGb    H29   80   0.641   3.735  -2.086
    1NGb    H2A   81   0.710   3.711  -2.294
    1NGb    H2B   82   0.513   3.803  -2.496
    1NGb    H2C   83   0.773   3.652  -2.497
    1NGb    H2D   84   0.632   3.459  -2.875
    1NGb    H2E   85   0.630   3.221  -2.827
    1NGb    H2F   86   0.799   3.119  -2.697
    1NGb    H2G   87   0.979   3.261  -2.593
    1NGb    H2H   88   0.969   3.512  -2.635
    1NGb    H2I   89   0.318   3.838  -2.309
    1NGb    H2J   90   0.433   3.945  -2.382
    1NGb    H2K   91   0.483   4.147  -2.266
    1NGb    H2M   92   0.558   4.055  -2.138
    1NGb    H2N   93   0.438   4.161  -2.089
    1NGb    H2O   94   0.145   3.973  -2.239
    1NGb    H2P   95   0.241   4.108  -2.306
    1NGb    H2Q   96   0.200   4.111  -2.137
    1NGb    H2R   97   0.264   3.840  -2.076
    1NGb    H2S   98   0.314   3.974  -1.971
    1NGb    H2T   99   0.389   3.716  -1.652
    1NGb    H2U  100   0.407   3.696  -1.408
    1NGb    C00    1   1.405   3.803  -1.212
    1NGb    N01    2   1.375   3.675  -1.272
    1NGb    C02    3   1.272   3.612  -1.190
    1NGb    C03    4   1.329   3.559  -1.056
    1NGb    O04    5   1.226   3.477  -1.003
    1NGb    C05    6   1.249   3.425  -0.878
    1NGb    C06    7   1.372   3.442  -0.812
    1NGb    C07    8   1.393   3.381  -0.688
    1NGb    C08    9   1.292   3.303  -0.630
    1NGb    C09   10   1.314   3.242  -0.497
    1NGb    C0A   11   1.401   3.300  -0.403
    1NGb    C0B   12   1.420   3.243  -0.276
    1NGb    C0C   13   1.356   3.123  -0.243
    1NGb    DUM   14   1.378   3.059  -0.123
    1NGb    C0E   15   1.269   3.064  -0.336
    1NGb    C0F   16   1.247   3.125  -0.460
    1NGb    C0G   17   1.170   3.285  -0.695
    1NGb    C0H   18   1.149   3.348  -0.818
    1NGb    C0I   19   1.363   3.682  -1.406
    1NGb    C0J   20   1.480   3.687  -1.490
    1NGb    C0K   21   1.465   3.715  -1.623
    1NGb    C0M   22   1.343   3.725  -1.683
    1NGb    C0N   23   1.334   3.736  -1.828
    1NGb    C0O   24   1.236   3.809  -1.882
    1NGb    C0P   25   1.202   3.824  -2.015
    1NGb    C0Q   26   1.288   3.781  -2.108
    1NGb    C0R   27   1.264   3.800  -2.238
    1NGb    C0S   28   1.359   3.754  -2.335
    1NGb    C0T   29   1.344   3.756  -2.465
    1NGb    C0U   30   1.438   3.706  -2.553
    1NGb    C0V   31   1.442   3.711  -2.704
    1NGb    C0W   32   1.346   3.765  -2.777
    1NGb    C0X   33   1.233   3.838  -2.725
    1NGb    N0Y   34   1.125   3.884  -2.707
    1NGb    C0Z   35   1.379   3.744  -2.906
    1NGb    C10   36   1.326   3.792  -3.025
    1NGb    C11   37   1.205   3.859  -3.029
    1NGb    N12   38   1.102   3.922  -3.041
    1NGb    C13   39   1.378   3.739  -3.148
    1NGb    N14   40   1.432   3.717  -3.254
    1NGb    O15   41   1.496   3.674  -2.915
    1NGb    C16   42   1.549   3.642  -2.782
    1NGb    C17   43   1.545   3.494  -2.754
    1NGb    C18   44   1.447   3.418  -2.809
    1NGb    C19   45   1.446   3.287  -2.787
    1NGb    C1A   46   1.542   3.226  -2.714
    1NGb    C1B   47   1.641   3.301  -2.655
    1NGb    C1C   48   1.639   3.439  -2.670
    1NGb    C1D   49   1.681   3.720  -2.770
    1NGb    F1E   50   1.655   3.848  -2.823
    1NGb    F1F   51   1.727   3.738  -2.642
    1NGb    F1G   52   1.769   3.662  -2.839
    1NGb    C1H   53   1.149   3.894  -2.289
    1NGb    C1I   54   1.105   3.986  -2.181
    1NGb    C1J   55   1.202   4.095  -2.172
    1NGb    C1K   56   0.966   4.045  -2.220
    1NGb    C1M   57   1.084   3.912  -2.056
    1NGb    C1N   58   1.226   3.710  -1.607
    1NGb    C1O   59   1.238   3.697  -1.465
    1NGb    H1P   60   1.494   3.844  -1.259
    1NGb    H1Q   61   1.416   3.805  -1.104
    1NGb    H1R   62   1.321   3.872  -1.231
    1NGb    H1S   63   1.230   3.525  -1.242
    1NGb    H1T   64   1.187   3.678  -1.170
    1NGb    H1U   65   1.352   3.637  -0.985
    1NGb    H1V   66   1.416   3.497  -1.076
    1NGb    H1W   67   1.455   3.499  -0.852
    1NGb    H1X   68   1.488   3.393  -0.641
    1NGb    H1Y   69   1.452   3.392  -0.425
    1NGb    H1Z   70   1.488   3.290  -0.207
    1NGb    DUM   71   1.420   3.113  -0.058
    1NGb    H21   72   1.217   2.974  -0.311
    1NGb    H22   73   1.180   3.075  -0.529
    1NGb    H23   74   1.088   3.230  -0.653
    1NGb    H24   75   1.055   3.338  -0.872
    1NGb    H25   76   1.577   3.679  -1.443
    1NGb    H26   77   1.554   3.718  -1.686
    1NGb    H27   78   1.402   3.674  -1.886
    1NGb    H28   79   1.171   3.860  -1.815
    1NGb    H29   80   1.381   3.735  -2.086
    1NGb    H2A   81   1.450   3.711  -2.294
    1NGb    H2B   82   1.253   3.803  -2.496
    1NGb    H2C   83   1.513   3.652  -2.497
    1NGb    H2D   84   1.372   3.459  -2.875
    1NGb    H2E   85   1.370   3.221  -2.827
    1NGb    H2F   86   1.539   3.119  -2.697
    1NGb    H2G   87   1.719   3.261  -2.593
    1NGb    H2H   88   1.709   3.512  -2.635
    1NGb    H2I   89   1.058   3.838  -2.309
    1NGb    H2J   90   1.173   3.945  -2.382
    1NGb    H2K   91   1.223   4.147  -2.266
    1NGb    H2M   92   1.298   4.055  -2.138
    1NGb    H2N   93   1.178   4.161  -2.089
    1NGb    H2O   94   0.885   3.973  -2.239
    1NGb    H2P   95   0.981   4.108  -2.306
    1NGb    H2Q   96   0.940   4.111  -2.137
    1NGb    H2R   97   1.004   3.840  -2.076
    1NGb    H2S   98   1.054   3.974  -1.971
    1NGb    H2T   99   1.129   3.716  -1.652
    1NGb    H2U  100   1.147   3.696  -1.408
    1NGb    C00    1   2.145   3.803  -1.212
    1NGb    N01    2   2.115   3.675  -1.272
    1NGb    C02    3   2.012   3.612  -1.190
    1NGb    C03    4   2.069   3.559  -1.056
    1NGb    O04    5   1.966   3.477  -1.003
    1NGb    C05    6   1.989   3.425  -0.878
    1NGb    C06    7   2.112   3.442  -0.812
    1NGb    C07    8   2.133   3.381  -0.688
    1NGb    C08    9   2.032   3.303  -0.630
    1NGb    C09   10   2.054   3.242  -0.497
    1NGb    C0A   11   2.141   3.300  -0.403
    1NGb    C0B   12   2.160   3.243  -0.276
    1NGb    C0C   13   2.096   3.123  -0.243
    1NGb    DUM   14   2.118   3.059  -0.123
    1NGb    C0E   15   2.009   3.064  -0.336
    1NGb    C0F   16   1.987   3.125  -0.460
    1NGb    C0G   17   1.910   3.285  -0.695
    1NGb    C0H   18   1.889   3.348  -0.818
    1NGb    C0I   19   2.103   3.682  -1.406
    1NGb    C0J   20   2.220   3.687  -1.490
    1NGb    C0K   21   2.205   3.715  -1.623
    1NGb    C0M   22   2.083   3.725  -1.683
    1NGb    C0N   23   2.074   3.736  -1.828
    1NGb    C0O   24   1.976   3.809  -1.882
    1NGb    C0P   25   1.942   3.824  -2.015
    1NGb    C0Q   26   2.028   3.781  -2.108
    1NGb    C0R   27   2.004   3.800  -2.238
    1NGb    C0S   28   2.099   3.754  -2.335
    1NGb    C0T   29   2.084   3.756  -2.465
    1NGb    C0U   30   2.178   3.706  -2.553
    1NGb    C0V   31   2.182   3.711  -2.704
    1NGb    C0W   32   2.086   3.765  -2.777
    1NGb    C0X   33   1.973   3.838  -2.725
    1NGb    N0Y   34   1.865   3.884  -2.707
    1NGb    C0Z   35   2.119   3.744  -2.906
    1NGb    C10   36   2.066   3.792  -3.025
    1NGb    C11   37   1.945   3.859  -3.029
    1NGb    N12   38   1.842   3.922  -3.041
    1NGb    C13   39   2.118   3.739  -3.148
    1NGb    N14   40   2.172   3.717  -3.254
    1NGb    O15   41   2.236   3.674  -2.915
    1NGb    C16   42   2.289   3.642  -2.782
    1NGb    C17   43   2.285   3.494  -2.754
    1NGb    C18   44   2.187   3.418  -2.809
    1NGb    C19   45   2.186   3.287  -2.787
    1NGb    C1A   46   2.282   3.226  -2.714
    1NGb    C1B   47   2.381   3.301  -2.655
    1NGb    C1C   48   2.379   3.439  -2.670
    1NGb    C1D   49   2.421   3.720  -2.770
    1NGb    F1E   50   2.395   3.848  -2.823
    1NGb    F1F   51   2.467   3.738  -2.642
    1NGb    F1G   52   2.509   3.662  -2.839
    1NGb    C1H   53   1.889   3.894  -2.289
    1NGb    C1I   54   1.845   3.986  -2.181
    1NGb    C1J   55   1.942   4.095  -2.172
    1NGb    C1K   56   1.706   4.045  -2.220
    1NGb    C1M   57   1.824   3.912  -2.056
    1NGb    C1N   58   1.966   3.710  -1.607
    1NGb    C1O   59   1.978   3.697  -1.465
    1NGb    H1P   60   2.234   3.844  -1.259
    1NGb    H1Q   61   2.156   3.805  -1.104
    1NGb    H1R   62   2.061   3.872  -1.231
    1NGb    H1S   63   1.970   3.525  -1.242
    1NGb    H1T   64   1.927   3.678  -1.170
    1NGb    H1U   65   2.092   3.637  -0.985
    1NGb    H1V   66   2.156   3.497  -1.076
    1NGb    H1W   67   2.195   3.499  -0.852
    1NGb    H1X   68   2.228   3.393  -0.641
    1NGb    H1Y   69   2.192   3.392  -0.425
    1NGb    H1Z   70   2.228   3.290  -0.207
    1NGb    DUM   71   2.160   3.113  -0.058
    1NGb    H21   72   1.957   2.974  -0.311
    1NGb    H22   73   1.920   3.075  -0.529
    1NGb    H23   74   1.828   3.230  -0.653
    1NGb    H24   75   1.795   3.338  -0.872
    1NGb    H25   76   2.317   3.679  -1.443
    1NGb    H26   77   2.294   3.718  -1.686
    1NGb    H27   78   2.142   3.674  -1.886
    1NGb    H28   79   1.911   3.860  -1.815
    1NGb    H29   80   2.121   3.735  -2.086
    1NGb    H2A   81   2.190   3.711  -2.294
    1NGb    H2B   82   1.993   3.803  -2.496
    1NGb    H2C   83   2.253   3.652  -2.497
    1NGb    H2D   84   2.112   3.459  -2.875
    1NGb    H2E   85   2.110   3.221  -2.827
    1NGb    H2F   86   2.279   3.119  -2.697
    1NGb    H2G   87   2.459   3.261  -2.593
    1NGb    H2H   88   2.449   3.512  -2.635
    1NGb    H2I   89   1.798   3.838  -2.309
    1NGb    H2J   90   1.913   3.945  -2.382
    1NGb    H2K   91   1.963   4.147  -2.266
    1NGb    H2M   92   2.038   4.055  -2.138
    1NGb    H2N   93   1.918   4.161  -2.089
    1NGb    H2O   94   1.625   3.973  -2.239
    1NGb    H2P   95   1.721   4.108  -2.306
    1NGb    H2Q   96   1.680   4.111  -2.137
    1NGb    H2R   97   1.744   3.840  -2.076
    1NGb    H2S   98   1.794   3.974  -1.971
    1NGb    H2T   99   1.869   3.716  -1.652
    1NGb    H2U  100   1.887   3.696  -1.408
    1NGb    C00    1   2.884   3.803  -1.212
    1NGb    N01    2   2.854   3.675  -1.272
    1NGb    C02    3   2.751   3.612  -1.190
    1NGb    C03    4   2.808   3.559  -1.056
    1NGb    O04    5   2.705   3.477  -1.003
    1NGb    C05    6   2.728   3.425  -0.878
    1NGb    C06    7   2.851   3.442  -0.812
    1NGb    C07    8   2.872   3.381  -0.688
    1NGb    C08    9   2.771   3.303  -0.630
    1NGb    C09   10   2.793   3.242  -0.497
    1NGb    C0A   11   2.880   3.300  -0.403
    1NGb    C0B   12   2.899   3.243  -0.276
    1NGb    C0C   13   2.835   3.123  -0.243
    1NGb    DUM   14   2.857   3.059  -0.123
    1NGb    C0E   15   2.748   3.064  -0.336
    1NGb    C0F   16   2.726   3.125  -0.460
    1NGb    C0G   17   2.649   3.285  -0.695
    1NGb    C0H   18   2.628   3.348  -0.818
    1NGb    C0I   19   2.842   3.682  -1.406
    1NGb    C0J   20   2.959   3.687  -1.490
    1NGb    C0K   21   2.944   3.715  -1.623
    1NGb    C0M   22   2.822   3.725  -1.683
    1NGb    C0N   23   2.813   3.736  -1.828
    1NGb    C0O   24   2.715   3.809  -1.882
    1NGb    C0P   25   2.681   3.824  -2.015
    1NGb    C0Q   26   2.767   3.781  -2.108
    1NGb    C0R   27   2.743   3.800  -2.238
    1NGb    C0S   28   2.838   3.754  -2.335
    1NGb    C0T   29   2.823   3.756  -2.465
    1NGb    C0U   30   2.917   3.706  -2.553
    1NGb    C0V   31   2.921   3.711  -2.704
    1NGb    C0W   32   2.825   3.765  -2.777
    1NGb    C0X   33   2.712   3.838  -2.725
    1NGb    N0Y   34   2.604   3.884  -2.707
    1NGb    C0Z   35   2.858   3.744  -2.906
    1NGb    C10   36   2.805   3.792  -3.025
    1NGb    C11   37   2.684   3.859  -3.029
    1NGb    N12   38   2.581   3.922  -3.041
    1NGb    C13   39   2.857   3.739  -3.148
    1NGb    N14   40   2.911   3.717  -3.254
    1NGb    O15   41   2.975   3.674  -2.915
    1NGb    C16   42   3.028   3.642  -2.782
    1NGb    C17   43   3.024   3.494  -2.754
    1NGb    C18   44   2.926   3.418  -2.809
    1NGb    C19   45   2.925   3.287  -2.787
    1NGb    C1A   46   3.021   3.226  -2.714
    1NGb    C1B   47   3.120   3.301  -2.655
    1NGb    C1C   48   3.118   3.439  -2.670
    1NGb    C1D   49   3.160   3.720  -2.770
    1NGb    F1E   50   3.134   3.848  -2.823
    1NGb    F1F   51   3.206   3.738  -2.642
    1NGb    F1G   52   3.248   3.662  -2.839
    1NGb    C1H   53   2.628   3.894  -2.289
    1NGb    C1I   54   2.584   3.986  -2.181
    1NGb    C1J   55   2.681   4.095  -2.172
    1NGb    C1K   56   2.445   4.045  -2.220
    1NGb    C1M   57   2.563   3.912  -2.056
    1NGb    C1N   58   2.705   3.710  -1.607
    1NGb    C1O   59   2.717   3.697  -1.465
    1NGb    H1P   60   2.973   3.844  -1.259
    1NGb    H1Q   61   2.895   3.805  -1.104
    1NGb    H1R   62   2.800   3.872  -1.231
    1NGb    H1S   63   2.709   3.525  -1.242
    1NGb    H1T   64   2.666   3.678  -1.170
    1NGb    H1U   65   2.831   3.637  -0.985
    1NGb    H1V   66   2.895   3.497  -1.076
    1NGb    H1W   67   2.934   3.499  -0.852
    1NGb    H1X   68   2.967   3.393  -0.641
    1NGb    H1Y   69   2.931   3.392  -0.425
    1NGb    H1Z   70   2.967   3.290  -0.207
    1NGb    DUM   71   2.899   3.113  -0.058
    1NGb    H21   72   2.696   2.974  -0.311
    1NGb    H22   73   2.659   3.075  -0.529
    1NGb    H23   74   2.567   3.230  -0.653
    1NGb    H24   75   2.534   3.338  -0.872
    1NGb    H25   76   3.056   3.679  -1.443
    1NGb    H26   77   3.033   3.718  -1.686
    1NGb    H27   78   2.881   3.674  -1.886
    1NGb    H28   79   2.650   3.860  -1.815
    1NGb    H29   80   2.860   3.735  -2.086
    1NGb    H2A   81   2.929   3.711  -2.294
    1NGb    H2B   82   2.732   3.803  -2.496
    1NGb    H2C   83   2.992   3.652  -2.497
    1NGb    H2D   84   2.851   3.459  -2.875
    1NGb    H2E   85   2.849   3.221  -2.827
    1NGb    H2F   86   3.018   3.119  -2.697
    1NGb    H2G   87   3.198   3.261  -2.593
    1NGb    H2H   88   3.188   3.512  -2.635
    1NGb    H2I   89   2.537   3.838  -2.309
    1NGb    H2J   90   2.652   3.945  -2.382
    1NGb    H2K   91   2.702   4.147  -2.266
    1NGb    H2M   92   2.777   4.055  -2.138
    1NGb    H2N   93   2.657   4.161  -2.089
    1NGb    H2O   94   2.364   3.973  -2.239
    1NGb    H2P   95   2.460   4.108  -2.306
    1NGb    H2Q   96   2.419   4.111  -2.137
    1NGb    H2R   97   2.483   3.840  -2.076
    1NGb    H2S   98   2.533   3.974  -1.971
    1NGb    H2T   99   2.608   3.716  -1.652
    1NGb    H2U  100   2.626   3.696  -1.408
    1NGb    C00    1   3.624   3.803  -1.212
    1NGb    N01    2   3.594   3.675  -1.272
    1NGb    C02    3   3.491   3.612  -1.190
    1NGb    C03    4   3.548   3.559  -1.056
    1NGb    O04    5   3.445   3.477  -1.003
    1NGb    C05    6   3.468   3.425  -0.878
    1NGb    C06    7   3.591   3.442  -0.812
    1NGb    C07    8   3.612   3.381  -0.688
    1NGb    C08    9   3.511   3.303  -0.630
    1NGb    C09   10   3.533   3.242  -0.497
    1NGb    C0A   11   3.620   3.300  -0.403
    1NGb    C0B   12   3.639   3.243  -0.276
    1NGb    C0C   13   3.575   3.123  -0.243
    1NGb    DUM   14   3.597   3.059  -0.123
    1NGb    C0E   15   3.488   3.064  -0.336
    1NGb    C0F   16   3.466   3.125  -0.460
    1NGb    C0G   17   3.389   3.285  -0.695
    1NGb    C0H   18   3.368   3.348  -0.818
    1NGb    C0I   19   3.582   3.682  -1.406
    1NGb    C0J   20   3.699   3.687  -1.490
    1NGb    C0K   21   3.684   3.715  -1.623
    1NGb    C0M   22   3.562   3.725  -1.683
    1NGb    C0N   23   3.553   3.736  -1.828
    1NGb    C0O   24   3.455   3.809  -1.882
    1NGb    C0P   25   3.421   3.824  -2.015
    1NGb    C0Q   26   3.507   3.781  -2.108
    1NGb    C0R   27   3.483   3.800  -2.238
    1NGb    C0S   28   3.578   3.754  -2.335
    1NGb    C0T   29   3.563   3.756  -2.465
    1NGb    C0U   30   3.657   3.706  -2.553
    1NGb    C0V   31   3.661   3.711  -2.704
    1NGb    C0W   32   3.565   3.765  -2.777
    1NGb    C0X   33   3.452   3.838  -2.725
    1NGb    N0Y   34   3.344   3.884  -2.707
    1NGb    C0Z   35   3.598   3.744  -2.906
    1NGb    C10   36   3.545   3.792  -3.025
    1NGb    C11   37   3.424   3.859  -3.029
    1NGb    N12   38   3.321   3.922  -3.041
    1NGb    C13   39   3.597   3.739  -3.148
    1NGb    N14   40   3.651   3.717  -3.254
    1NGb    O15   41   3.715   3.674  -2.915
    1NGb    C16   42   3.768   3.642  -2.782
    1NGb    C17   43   3.764   3.494  -2.754
    1NGb    C18   44   3.666   3.418  -2.809
    1NGb    C19   45   3.665   3.287  -2.787
    1NGb    C1A   46   3.761   3.226  -2.714
    1NGb    C1B   47   3.860   3.301  -2.655
    1NGb    C1C   48   3.858   3.439  -2.670
    1NGb    C1D   49   3.900   3.720  -2.770
    1NGb    F1E   50   3.874   3.848  -2.823
    1NGb    F1F   51   3.946   3.738  -2.642
    1NGb    F1G   52   3.988   3.662  -2.839
    1NGb    C1H   53   3.368   3.894  -2.289
    1NGb    C1I   54   3.324   3.986  -2.181
    1NGb    C1J   55   3.421   4.095  -2.172
    1NGb    C1K   56   3.185   4.045  -2.220
    1NGb    C1M   57   3.303   3.912  -2.056
    1NGb    C1N   58   3.445   3.710  -1.607
    1NGb    C1O   59   3.457   3.697  -1.465
    1NGb    H1P   60   3.713   3.844  -1.259
    1NGb    H1Q   61   3.635   3.805  -1.104
    1NGb    H1R   62   3.540   3.872  -1.231
    1NGb    H1S   63   3.449   3.525  -1.242
    1NGb    H1T   64   3.406   3.678  -1.170
    1NGb    H1U   65   3.571   3.637  -0.985
    1NGb    H1V   66   3.635   3.497  -1.076
    1NGb    H1W   67   3.674   3.499  -0.852
    1NGb    H1X   68   3.707   3.393  -0.641
    1NGb    H1Y   69   3.671   3.392  -0.425
    1NGb    H1Z   70   3.707   3.290  -0.207
    1NGb    DUM   71   3.639   3.113  -0.058
    1NGb    H21   72   3.436   2.974  -0.311
    1NGb    H22   73   3.399   3.075  -0.529
    1NGb    H23   74   3.307   3.230  -0.653
    1NGb    H24   75   3.274   3.338  -0.872
    1NGb    H25   76   3.796   3.679  -1.443
    1NGb    H26   77   3.773   3.718  -1.686
    1NGb    H27   78   3.621   3.674  -1.886
    1NGb    H28   79   3.390   3.860  -1.815
    1NGb    H29   80   3.600   3.735  -2.086
    1NGb    H2A   81   3.669   3.711  -2.294
    1NGb    H2B   82   3.472   3.803  -2.496
    1NGb    H2C   83   3.732   3.652  -2.497
    1NGb    H2D   84   3.591   3.459  -2.875
    1NGb    H2E   85   3.589   3.221  -2.827
    1NGb    H2F   86   3.758   3.119  -2.697
    1NGb    H2G   87   3.938   3.261  -2.593
    1NGb    H2H   88   3.928   3.512  -2.635
    1NGb    H2I   89   3.277   3.838  -2.309
    1NGb    H2J   90   3.392   3.945  -2.382
    1NGb    H2K   91   3.442   4.147  -2.266
    1NGb    H2M   92   3.517   4.055  -2.138
    1NGb    H2N   93   3.397   4.161  -2.089
    1NGb    H2O   94   3.104   3.973  -2.239
    1NGb    H2P   95   3.200   4.108  -2.306
    1NGb    H2Q   96   3.159   4.111  -2.137
    1NGb    H2R   97   3.223   3.840  -2.076
    1NGb    H2S   98   3.273   3.974  -1.971
    1NGb    H2T   99   3.348   3.716  -1.652
    1NGb    H2U  100   3.366   3.696  -1.408
    1NGb    C00    1   4.364   3.803  -1.212
    1NGb    N01    2   4.334   3.675  -1.272
    1NGb    C02    3   4.231   3.612  -1.190
    1NGb    C03    4   4.288   3.559  -1.056
    1NGb    O04    5   4.185   3.477  -1.003
    1NGb    C05    6   4.208   3.425  -0.878
    1NGb    C06    7   4.331   3.442  -0.812
    1NGb    C07    8   4.352   3.381  -0.688
    1NGb    C08    9   4.251   3.303  -0.630
    1NGb    C09   10   4.273   3.242  -0.497
    1NGb    C0A   11   4.360   3.300  -0.403
    1NGb    C0B   12   4.379   3.243  -0.276
    1NGb    C0C   13   4.315   3.123  -0.243
    1NGb    DUM   14   4.337   3.059  -0.123
    1NGb    C0E   15   4.228   3.064  -0.336
    1NGb    C0F   16   4.206   3.125  -0.460
    1NGb    C0G   17   4.129   3.285  -0.695
    1NGb    C0H   18   4.108   3.348  -0.818
    1NGb    C0I   19   4.322   3.682  -1.406
    1NGb    C0J   20   4.439   3.687  -1.490
    1NGb    C0K   21   4.424   3.715  -1.623
    1NGb    C0M   22   4.302   3.725  -1.683
    1NGb    C0N   23   4.293   3.736  -1.828
    1NGb    C0O   24   4.195   3.809  -1.882
    1NGb    C0P   25   4.161   3.824  -2.015
    1NGb    C0Q   26   4.247   3.781  -2.108
    1NGb    C0R   27   4.223   3.800  -2.238
    1NGb    C0S   28   4.318   3.754  -2.335
    1NGb    C0T   29   4.303   3.756  -2.465
    1NGb    C0U   30   4.397   3.706  -2.553
    1NGb    C0V   31   4.401   3.711  -2.704
    1NGb    C0W   32   4.305   3.765  -2.777
    1NGb    C0X   33   4.192   3.838  -2.725
    1NGb    N0Y   34   4.084   3.884  -2.707
    1NGb    C0Z   35   4.338   3.744  -2.906
    1NGb    C10   36   4.285   3.792  -3.025
    1NGb    C11   37   4.164   3.859  -3.029
    1NGb    N12   38   4.061   3.922  -3.041
    1NGb    C13   39   4.337   3.739  -3.148
    1NGb    N14   40   4.391   3.717  -3.254
    1NGb    O15   41   4.455   3.674  -2.915
    1NGb    C16   42   4.508   3.642  -2.782
    1NGb    C17   43   4.504   3.494  -2.754
    1NGb    C18   44   4.406   3.418  -2.809
    1NGb    C19   45   4.405   3.287  -2.787
    1NGb    C1A   46   4.501   3.226  -2.714
    1NGb    C1B   47   4.600   3.301  -2.655
    1NGb    C1C   48   4.598   3.439  -2.670
    1NGb    C1D   49   4.640   3.720  -2.770
    1NGb    F1E   50   4.614   3.848  -2.823
    1NGb    F1F   51   4.686   3.738  -2.642
    1NGb    F1G   52   4.728   3.662  -2.839
    1NGb    C1H   53   4.108   3.894  -2.289
    1NGb    C1I   54   4.064   3.986  -2.181
    1NGb    C1J   55   4.161   4.095  -2.172
    1NGb    C1K   56   3.925   4.045  -2.220
    1NGb    C1M   57   4.043   3.912  -2.056
    1NGb    C1N   58   4.185   3.710  -1.607
    1NGb    C1O   59   4.197   3.697  -1.465
    1NGb    H1P   60   4.453   3.844  -1.259
    1NGb    H1Q   61   4.375   3.805  -1.104
    1NGb    H1R   62   4.280   3.872  -1.231
    1NGb    H1S   63   4.189   3.525  -1.242
    1NGb    H1T   64   4.146   3.678  -1.170
    1NGb    H1U   65   4.311   3.637  -0.985
    1NGb    H1V   66   4.375   3.497  -1.076
    1NGb    H1W   67   4.414   3.499  -0.852
    1NGb    H1X   68   4.447   3.393  -0.641
    1NGb    H1Y   69   4.411   3.392  -0.425
    1NGb    H1Z   70   4.447   3.290  -0.207
    1NGb    DUM   71   4.379   3.113  -0.058
    1NGb    H21   72   4.176   2.974  -0.311
    1NGb    H22   73   4.139   3.075  -0.529
    1NGb    H23   74   4.047   3.230  -0.653
    1NGb    H24   75   4.014   3.338  -0.872
    1NGb    H25   76   4.536   3.679  -1.443
    1NGb    H26   77   4.513   3.718  -1.686
    1NGb    H27   78   4.361   3.674  -1.886
    1NGb    H28   79   4.130   3.860  -1.815
    1NGb    H29   80   4.340   3.735  -2.086
    1NGb    H2A   81   4.409   3.711  -2.294
    1NGb    H2B   82   4.212   3.803  -2.496
    1NGb    H2C   83   4.472   3.652  -2.497
    1NGb    H2D   84   4.331   3.459  -2.875
    1NGb    H2E   85   4.329   3.221  -2.827
    1NGb    H2F   86   4.498   3.119  -2.697
    1NGb    H2G   87   4.678   3.261  -2.593
    1NGb    H2H   88   4.668   3.512  -2.635
    1NGb    H2I   89   4.017   3.838  -2.309
    1NGb    H2J   90   4.132   3.945  -2.382
    1NGb    H2K   91   4.182   4.147  -2.266
    1NGb    H2M   92   4.257   4.055  -2.138
    1NGb    H2N   93   4.137   4.161  -2.089
    1NGb    H2O   94   3.844   3.973  -2.239
    1NGb    H2P   95   3.940   4.108  -2.306
    1NGb    H2Q   96   3.899   4.111  -2.137
    1NGb    H2R   97   3.963   3.840  -2.076
    1NGb    H2S   98   4.013   3.974  -1.971
    1NGb    H2T   99   4.088   3.716  -1.652
    1NGb    H2U  100   4.106   3.696  -1.408
    1NGb    C00    1   5.104   3.803  -1.212
    1NGb    N01    2   5.074   3.675  -1.272
    1NGb    C02    3   4.971   3.612  -1.190
    1NGb    C03    4   5.028   3.559  -1.056
    1NGb    O04    5   4.925   3.477  -1.003
    1NGb    C05    6   4.948   3.425  -0.878
    1NGb    C06    7   5.071   3.442  -0.812
    1NGb    C07    8   5.092   3.381  -0.688
    1NGb    C08    9   4.991   3.303  -0.630
    1NGb    C09   10   5.013   3.242  -0.497
    1NGb    C0A   11   5.100   3.300  -0.403
    1NGb    C0B   12   5.119   3.243  -0.276
    1NGb    C0C   13   5.055   3.123  -0.243
    1NGb    DUM   14   5.077   3.059  -0.123
    1NGb    C0E   15   4.968   3.064  -0.336
    1NGb    C0F   16   4.946   3.125  -0.460
    1NGb    C0G   17   4.869   3.285  -0.695
    1NGb    C0H   18   4.848   3.348  -0.818
    1NGb    C0I   19   5.062   3.682  -1.406
    1NGb    C0J   20   5.179   3.687  -1.490
    1NGb    C0K   21   5.164   3.715  -1.623
    1NGb    C0M   22   5.042   3.725  -1.683
    1NGb    C0N   23   5.033   3.736  -1.828
    1NGb    C0O   24   4.935   3.809  -1.882
    1NGb    C0P   25   4.901   3.824  -2.015
    1NGb    C0Q   26   4.987   3.781  -2.108
    1NGb    C0R   27   4.963   3.800  -2.238
    1NGb    C0S   28   5.058   3.754  -2.335
    1NGb    C0T   29   5.043   3.756  -2.465
    1NGb    C0U   30   5.137   3.706  -2.553
    1NGb    C0V   31   5.141   3.711  -2.704
    1NGb    C0W   32   5.045   3.765  -2.777
    1NGb    C0X   33   4.932   3.838  -2.725
    1NGb    N0Y   34   4.824   3.884  -2.707
    1NGb    C0Z   35   5.078   3.744  -2.906
    1NGb    C10   36   5.025   3.792  -3.025
    1NGb    C11   37   4.904   3.859  -3.029
    1NGb    N12   38   4.801   3.922  -3.041
    1NGb    C13   39   5.077   3.739  -3.148
    1NGb    N14   40   5.131   3.717  -3.254
    1NGb    O15   41   5.195   3.674  -2.915
    1NGb    C16   42   5.248   3.642  -2.782
    1NGb    C17   43   5.244   3.494  -2.754
    1NGb    C18   44   5.146   3.418  -2.809
    1NGb    C19   45   5.145   3.287  -2.787
    1NGb    C1A   46   5.241   3.226  -2.714
    1NGb    C1B   47   5.340   3.301  -2.655
    1NGb    C1C   48   5.338   3.439  -2.670
    1NGb    C1D   49   5.380   3.720  -2.770
    1NGb    F1E   50   5.354   3.848  -2.823
    1NGb    F1F   51   5.426   3.738  -2.642
    1NGb    F1G   52   5.468   3.662  -2.839
    1NGb    C1H   53   4.848   3.894  -2.289
    1NGb    C1I   54   4.804   3.986  -2.181
    1NGb    C1J   55   4.901   4.095  -2.172
    1NGb    C1K   56   4.665   4.045  -2.220
    1NGb    C1M   57   4.783   3.912  -2.056
    1NGb    C1N   58   4.925   3.710  -1.607
    1NGb    C1O   59   4.937   3.697  -1.465
    1NGb    H1P   60   5.193   3.844  -1.259
    1NGb    H1Q   61   5.115   3.805  -1.104
    1NGb    H1R   62   5.020   3.872  -1.231
    1NGb    H1S   63   4.929   3.525  -1.242
    1NGb    H1T   64   4.886   3.678  -1.170
    1NGb    H1U   65   5.051   3.637  -0.985
    1NGb    H1V   66   5.115   3.497  -1.076
    1NGb    H1W   67   5.154   3.499  -0.852
    1NGb    H1X   68   5.187   3.393  -0.641
    1NGb    H1Y   69   5.151   3.392  -0.425
    1NGb    H1Z   70   5.187   3.290  -0.207
    1NGb    DUM   71   5.119   3.113  -0.058
    1NGb    H21   72   4.916   2.974  -0.311
    1NGb    H22   73   4.879   3.075  -0.529
    1NGb    H23   74   4.787   3.230  -0.653
    1NGb    H24   75   4.754   3.338  -0.872
    1NGb    H25   76   5.276   3.679  -1.443
    1NGb    H26   77   5.253   3.718  -1.686
    1NGb    H27   78   5.101   3.674  -1.886
    1NGb    H28   79   4.870   3.860  -1.815
    1NGb    H29   80   5.080   3.735  -2.086
    1NGb    H2A   81   5.149   3.711  -2.294
    1NGb    H2B   82   4.952   3.803  -2.496
    1NGb    H2C   83   5.212   3.652  -2.497
    1NGb    H2D   84   5.071   3.459  -2.875
    1NGb    H2E   85   5.069   3.221  -2.827
    1NGb    H2F   86   5.238   3.119  -2.697
    1NGb    H2G   87   5.418   3.261  -2.593
    1NGb    H2H   88   5.408   3.512  -2.635
    1NGb    H2I   89   4.757   3.838  -2.309
    1NGb    H2J   90   4.872   3.945  -2.382
    1NGb    H2K   91   4.922   4.147  -2.266
    1NGb    H2M   92   4.997   4.055  -2.138
    1NGb    H2N   93   4.877   4.161  -2.089
    1NGb    H2O   94   4.584   3.973  -2.239
    1NGb    H2P   95   4.680   4.108  -2.306
    1NGb    H2Q   96   4.639   4.111  -2.137
    1NGb    H2R   97   4.703   3.840  -2.076
    1NGb    H2S   98   4.753   3.974  -1.971
    1NGb    H2T   99   4.828   3.716  -1.652
    1NGb    H2U  100   4.846   3.696  -1.408
    1NGb    C00    1  -0.075   4.543  -1.212
    1NGb    N01    2  -0.105   4.415  -1.272
    1NGb    C02    3  -0.208   4.352  -1.190
    1NGb    C03    4  -0.151   4.299  -1.056
    1NGb    O04    5  -0.254   4.217  -1.003
    1NGb    C05    6  -0.231   4.165  -0.878
    1NGb    C06    7  -0.108   4.182  -0.812
    1NGb    C07    8  -0.087   4.121  -0.688
    1NGb    C08    9  -0.188   4.043  -0.630
    1NGb    C09   10  -0.166   3.982  -0.497
    1NGb    C0A   11  -0.079   4.040  -0.403
    1NGb    C0B   12  -0.060   3.983  -0.276
    1NGb    C0C   13  -0.124   3.863  -0.243
    1NGb    DUM   14  -0.102   3.799  -0.123
    1NGb    C0E   15  -0.211   3.804  -0.336
    1NGb    C0F   16  -0.233   3.865  -0.460
    1NGb    C0G   17  -0.310   4.025  -0.695
    1NGb    C0H   18  -0.331   4.088  -0.818
    1NGb    C0I   19  -0.117   4.422  -1.406
    1NGb    C0J   20   0.000   4.427  -1.490
    1NGb    C0K   21  -0.015   4.455  -1.623
    1NGb    C0M   22  -0.137   4.465  -1.683
    1NGb    C0N   23  -0.146   4.476  -1.828
    1NGb    C0O   24  -0.244   4.549  -1.882
    1NGb    C0P   25  -0.278   4.564  -2.015
    1NGb    C0Q   26  -0.192   4.521  -2.108
    1NGb    C0R   27  -0.216   4.540  -2.238
    1NGb    C0S   28  -0.121   4.494  -2.335
    1NGb    C0T   29  -0.136   4.496  -2.465
    1NGb    C0U   30  -0.042   4.446  -2.553
    1NGb    C0V   31  -0.038   4.451  -2.704
    1NGb    C0W   32  -0.134   4.505  -2.777
    1NGb    C0X   33  -0.247   4.578  -2.725
    1NGb    N0Y   34  -0.355   4.624  -2.707
    1NGb    C0Z   35  -0.101   4.484  -2.906
    1NGb    C10   36  -0.154   4.532  -3.025
    1NGb    C11   37  -0.275   4.599  -3.029
    1NGb    N12   38  -0.378   4.662  -3.041
    1NGb    C13   39  -0.102   4.479  -3.148
    1NGb    N14   40  -0.048   4.457  -3.254
    1NGb    O15   41   0.016   4.414  -2.915
    1NGb    C16   42   0.069   4.382  -2.782
    1NGb    C17   43   0.065   4.234  -2.754
    1NGb    C18   44  -0.033   4.158  -2.809
    1NGb    C19   45  -0.034   4.027  -2.787
    1NGb    C1A   46   0.062   3.966  -2.714
    1NGb    C1B   47   0.161   4.041  -2.655
    1NGb    C1C   48   0.159   4.179  -2.670
    1NGb    C1D   49   0.201   4.460  -2.770
    1NGb    F1E   50   0.175   4.588  -2.823
    1NGb    F1F   51   0.247   4.478  -2.642
    1NGb    F1G   52   0.289   4.402  -2.839
    1NGb    C1H   53  -0.331   4.634  -2.289
    1NGb    C1I   54  -0.375   4.726  -2.181
    1NGb    C1J   55  -0.278   4.835  -2.172
    1NGb    C1K   56  -0.514   4.785  -2.220
    1NGb    C1M   57  -0.396   4.652  -2.056
    1NGb    C1N   58  -0.254   4.450  -1.607
    1NGb    C1O   59  -0.242   4.437  -1.465
    1NGb    H1P   60   0.014   4.584  -1.259
    1NGb    H1Q   61  -0.064   4.545  -1.104
    1NGb    H1R   62  -0.159   4.612  -1.231
    1NGb    H1S   63  -0.250   4.265  -1.242
    1NGb    H1T   64  -0.293   4.418  -1.170
    1NGb    H1U   65  -0.128   4.377  -0.985
    1NGb    H1V   66  -0.064   4.237  -1.076
    1NGb    H1W   67  -0.025   4.239  -0.852
    1NGb    H1X   68   0.008   4.133  -0.641
    1NGb    H1Y   69  -0.028   4.132  -0.425
    1NGb    H1Z   70   0.008   4.030  -0.207
    1NGb    DUM   71  -0.060   3.853  -0.058
    1NGb    H21   72  -0.263   3.714  -0.311
    1NGb    H22   73  -0.300   3.815  -0.529
    1NGb    H23   74  -0.392   3.970  -0.653
    1NGb    H24   75  -0.425   4.078  -0.872
    1NGb    H25   76   0.097   4.419  -1.443
    1NGb    H26   77   0.074   4.458  -1.686
    1NGb    H27   78  -0.078   4.414  -1.886
    1NGb    H28   79  -0.309   4.600  -1.815
    1NGb    H29   80  -0.099   4.475  -2.086
    1NGb    H2A   81  -0.030   4.451  -2.294
    1NGb    H2B   82  -0.227   4.543  -2.496
    1NGb    H2C   83   0.033   4.392  -2.497
    1NGb    H2D   84  -0.108   4.199  -2.875
    1NGb    H2E   85  -0.110   3.961  -2.827
    1NGb    H2F   86   0.059   3.859  -2.697
    1NGb    H2G   87   0.239   4.001  -2.593
    1NGb    H2H   88   0.229   4.252  -2.635
    1NGb    H2I   89  -0.422   4.578  -2.309
    1NGb    H2J   90  -0.307   4.685  -2.382
    1NGb    H2K   91  -0.257   4.887  -2.266
    1NGb    H2M   92  -0.182   4.795  -2.138
    1NGb    H2N   93  -0.302   4.901  -2.089
    1NGb    H2O   94  -0.595   4.713  -2.239
    1NGb    H2P   95  -0.499   4.848  -2.306
    1NGb    H2Q   96  -0.540   4.851  -2.137
    1NGb    H2R   97  -0.476   4.580  -2.076
    1NGb    H2S   98  -0.426   4.714  -1.971
    1NGb    H2T   99  -0.351   4.456  -1.652
    1NGb    H2U  100  -0.333   4.436  -1.408
    1NGb    C00    1   0.665   4.543  -1.212
    1NGb    N01    2   0.635   4.415  -1.272
    1NGb    C02    3   0.532   4.352  -1.190
    1NGb    C03    4   0.589   4.299  -1.056
    1NGb    O04    5   0.486   4.217  -1.003
    1NGb    C05    6   0.509   4.165  -0.878
    1NGb    C06    7   0.632   4.182  -0.812
    1NGb    C07    8   0.653   4.121  -0.688
    1NGb    C08    9   0.552   4.043  -0.630
    1NGb    C09   10   0.574   3.982  -0.497
    1NGb    C0A   11   0.661   4.040  -0.403
    1NGb    C0B   12   0.680   3.983  -0.276
    1NGb    C0C   13   0.616   3.863  -0.243
    1NGb    DUM   14   0.638   3.799  -0.123
    1NGb    C0E   15   0.529   3.804  -0.336
    1NGb    C0F   16   0.507   3.865  -0.460
    1NGb    C0G   17   0.430   4.025  -0.695
    1NGb    C0H   18   0.409   4.088  -0.818
    1NGb    C0I   19   0.623   4.422  -1.406
    1NGb    C0J   20   0.740   4.427  -1.490
    1NGb    C0K   21   0.725   4.455  -1.623
    1NGb    C0M   22   0.603   4.465  -1.683
    1NGb    C0N   23   0.594   4.476  -1.828
    1NGb    C0O   24   0.496   4.549  -1.882
    1NGb    C0P   25   0.462   4.564  -2.015
    1NGb    C0Q   26   0.548   4.521  -2.108
    1NGb    C0R   27   0.524   4.540  -2.238
    1NGb    C0S   28   0.619   4.494  -2.335
    1NGb    C0T   29   0.604   4.496  -2.465
    1NGb    C0U   30   0.698   4.446  -2.553
    1NGb    C0V   31   0.702   4.451  -2.704
    1NGb    C0W   32   0.606   4.505  -2.777
    1NGb    C0X   33   0.493   4.578  -2.725
    1NGb    N0Y   34   0.385   4.624  -2.707
    1NGb    C0Z   35   0.639   4.484  -2.906
    1NGb    C10   36   0.586   4.532  -3.025
    1NGb    C11   37   0.465   4.599  -3.029
    1NGb    N12   38   0.362   4.662  -3.041
    1NGb    C13   39   0.638   4.479  -3.148
    1NGb    N14   40   0.692   4.457  -3.254
    1NGb    O15   41   0.756   4.414  -2.915
    1NGb    C16   42   0.809   4.382  -2.782
    1NGb    C17   43   0.805   4.234  -2.754
    1NGb    C18   44   0.707   4.158  -2.809
    1NGb    C19   45   0.706   4.027  -2.787
    1NGb    C1A   46   0.802   3.966  -2.714
    1NGb    C1B   47   0.901   4.041  -2.655
    1NGb    C1C   48   0.899   4.179  -2.670
    1NGb    C1D   49   0.941   4.460  -2.770
    1NGb    F1E   50   0.915   4.588  -2.823
    1NGb    F1F   51   0.987   4.478  -2.642
    1NGb    F1G   52   1.029   4.402  -2.839
    1NGb    C1H   53   0.409   4.634  -2.289
    1NGb    C1I   54   0.365   4.726  -2.181
    1NGb    C1J   55   0.462   4.835  -2.172
    1NGb    C1K   56   0.226   4.785  -2.220
    1NGb    C1M   57   0.344   4.652  -2.056
    1NGb    C1N   58   0.486   4.450  -1.607
    1NGb    C1O   59   0.498   4.437  -1.465
    1NGb    H1P   60   0.754   4.584  -1.259
    1NGb    H1Q   61   0.676   4.545  -1.104
    1NGb    H1R   62   0.581   4.612  -1.231
    1NGb    H1S   63   0.490   4.265  -1.242
    1NGb    H1T   64   0.447   4.418  -1.170
    1NGb    H1U   65   0.612   4.377  -0.985
    1NGb    H1V   66   0.676   4.237  -1.076
    1NGb    H1W   67   0.715   4.239  -0.852
    1NGb    H1X   68   0.748   4.133  -0.641
    1NGb    H1Y   69   0.712   4.132  -0.425
    1NGb    H1Z   70   0.748   4.030  -0.207
    1NGb    DUM   71   0.680   3.853  -0.058
    1NGb    H21   72   0.477   3.714  -0.311
    1NGb    H22   73   0.440   3.815  -0.529
    1NGb    H23   74   0.348   3.970  -0.653
    1NGb    H24   75   0.315   4.078  -0.872
    1NGb    H25   76   0.837   4.419  -1.443
    1NGb    H26   77   0.814   4.458  -1.686
    1NGb    H27   78   0.662   4.414  -1.886
    1NGb    H28   79   0.431   4.600  -1.815
    1NGb    H29   80   0.641   4.475  -2.086
    1NGb    H2A   81   0.710   4.451  -2.294
    1NGb    H2B   82   0.513   4.543  -2.496
    1NGb    H2C   83   0.773   4.392  -2.497
    1NGb    H2D   84   0.632   4.199  -2.875
    1NGb    H2E   85   0.630   3.961  -2.827
    1NGb    H2F   86   0.799   3.859  -2.697
    1NGb    H2G   87   0.979   4.001  -2.593
    1NGb    H2H   88   0.969   4.252  -2.635
    1NGb    H2I   89   0.318   4.578  -2.309
    1NGb    H2J   90   0.433   4.685  -2.382
    1NGb    H2K   91   0.483   4.887  -2.266
    1NGb    H2M   92   0.558   4.795  -2.138
    1NGb    H2N   93   0.438   4.901  -2.089
    1NGb    H2O   94   0.145   4.713  -2.239
    1NGb    H2P   95   0.241   4.848  -2.306
    1NGb    H2Q   96   0.200   4.851  -2.137
    1NGb    H2R   97   0.264   4.580  -2.076
    1NGb    H2S   98   0.314   4.714  -1.971
    1NGb    H2T   99   0.389   4.456  -1.652
    1NGb    H2U  100   0.407   4.436  -1.408
    1NGb    C00    1   1.405   4.543  -1.212
    1NGb    N01    2   1.375   4.415  -1.272
    1NGb    C02    3   1.272   4.352  -1.190
    1NGb    C03    4   1.329   4.299  -1.056
    1NGb    O04    5   1.226   4.217  -1.003
    1NGb    C05    6   1.249   4.165  -0.878
    1NGb    C06    7   1.372   4.182  -0.812
    1NGb    C07    8   1.393   4.121  -0.688
    1NGb    C08    9   1.292   4.043  -0.630
    1NGb    C09   10   1.314   3.982  -0.497
    1NGb    C0A   11   1.401   4.040  -0.403
    1NGb    C0B   12   1.420   3.983  -0.276
    1NGb    C0C   13   1.356   3.863  -0.243
    1NGb    DUM   14   1.378   3.799  -0.123
    1NGb    C0E   15   1.269   3.804  -0.336
    1NGb    C0F   16   1.247   3.865  -0.460
    1NGb    C0G   17   1.170   4.025  -0.695
    1NGb    C0H   18   1.149   4.088  -0.818
    1NGb    C0I   19   1.363   4.422  -1.406
    1NGb    C0J   20   1.480   4.427  -1.490
    1NGb    C0K   21   1.465   4.455  -1.623
    1NGb    C0M   22   1.343   4.465  -1.683
    1NGb    C0N   23   1.334   4.476  -1.828
    1NGb    C0O   24   1.236   4.549  -1.882
    1NGb    C0P   25   1.202   4.564  -2.015
    1NGb    C0Q   26   1.288   4.521  -2.108
    1NGb    C0R   27   1.264   4.540  -2.238
    1NGb    C0S   28   1.359   4.494  -2.335
    1NGb    C0T   29   1.344   4.496  -2.465
    1NGb    C0U   30   1.438   4.446  -2.553
    1NGb    C0V   31   1.442   4.451  -2.704
    1NGb    C0W   32   1.346   4.505  -2.777
    1NGb    C0X   33   1.233   4.578  -2.725
    1NGb    N0Y   34   1.125   4.624  -2.707
    1NGb    C0Z   35   1.379   4.484  -2.906
    1NGb    C10   36   1.326   4.532  -3.025
    1NGb    C11   37   1.205   4.599  -3.029
    1NGb    N12   38   1.102   4.662  -3.041
    1NGb    C13   39   1.378   4.479  -3.148
    1NGb    N14   40   1.432   4.457  -3.254
    1NGb    O15   41   1.496   4.414  -2.915
    1NGb    C16   42   1.549   4.382  -2.782
    1NGb    C17   43   1.545   4.234  -2.754
    1NGb    C18   44   1.447   4.158  -2.809
    1NGb    C19   45   1.446   4.027  -2.787
    1NGb    C1A   46   1.542   3.966  -2.714
    1NGb    C1B   47   1.641   4.041  -2.655
    1NGb    C1C   48   1.639   4.179  -2.670
    1NGb    C1D   49   1.681   4.460  -2.770
    1NGb    F1E   50   1.655   4.588  -2.823
    1NGb    F1F   51   1.727   4.478  -2.642
    1NGb    F1G   52   1.769   4.402  -2.839
    1NGb    C1H   53   1.149   4.634  -2.289
    1NGb    C1I   54   1.105   4.726  -2.181
    1NGb    C1J   55   1.202   4.835  -2.172
    1NGb    C1K   56   0.966   4.785  -2.220
    1NGb    C1M   57   1.084   4.652  -2.056
    1NGb    C1N   58   1.226   4.450  -1.607
    1NGb    C1O   59   1.238   4.437  -1.465
    1NGb    H1P   60   1.494   4.584  -1.259
    1NGb    H1Q   61   1.416   4.545  -1.104
    1NGb    H1R   62   1.321   4.612  -1.231
    1NGb    H1S   63   1.230   4.265  -1.242
    1NGb    H1T   64   1.187   4.418  -1.170
    1NGb    H1U   65   1.352   4.377  -0.985
    1NGb    H1V   66   1.416   4.237  -1.076
    1NGb    H1W   67   1.455   4.239  -0.852
    1NGb    H1X   68   1.488   4.133  -0.641
    1NGb    H1Y   69   1.452   4.132  -0.425
    1NGb    H1Z   70   1.488   4.030  -0.207
    1NGb    DUM   71   1.420   3.853  -0.058
    1NGb    H21   72   1.217   3.714  -0.311
    1NGb    H22   73   1.180   3.815  -0.529
    1NGb    H23   74   1.088   3.970  -0.653
    1NGb    H24   75   1.055   4.078  -0.872
    1NGb    H25   76   1.577   4.419  -1.443
    1NGb    H26   77   1.554   4.458  -1.686
    1NGb    H27   78   1.402   4.414  -1.886
    1NGb    H28   79   1.171   4.600  -1.815
    1NGb    H29   80   1.381   4.475  -2.086
    1NGb    H2A   81   1.450   4.451  -2.294
    1NGb    H2B   82   1.253   4.543  -2.496
    1NGb    H2C   83   1.513   4.392  -2.497
    1NGb    H2D   84   1.372   4.199  -2.875
    1NGb    H2E   85   1.370   3.961  -2.827
    1NGb    H2F   86   1.539   3.859  -2.697
    1NGb    H2G   87   1.719   4.001  -2.593
    1NGb    H2H   88   1.709   4.252  -2.635
    1NGb    H2I   89   1.058   4.578  -2.309
    1NGb    H2J   90   1.173   4.685  -2.382
    1NGb    H2K   91   1.223   4.887  -2.266
    1NGb    H2M   92   1.298   4.795  -2.138
    1NGb    H2N   93   1.178   4.901  -2.089
    1NGb    H2O   94   0.885   4.713  -2.239
    1NGb    H2P   95   0.981   4.848  -2.306
    1NGb    H2Q   96   0.940   4.851  -2.137
    1NGb    H2R   97   1.004   4.580  -2.076
    1NGb    H2S   98   1.054   4.714  -1.971
    1NGb    H2T   99   1.129   4.456  -1.652
    1NGb    H2U  100   1.147   4.436  -1.408
    1NGb    C00    1   2.145   4.543  -1.212
    1NGb    N01    2   2.115   4.415  -1.272
    1NGb    C02    3   2.012   4.352  -1.190
    1NGb    C03    4   2.069   4.299  -1.056
    1NGb    O04    5   1.966   4.217  -1.003
    1NGb    C05    6   1.989   4.165  -0.878
    1NGb    C06    7   2.112   4.182  -0.812
    1NGb    C07    8   2.133   4.121  -0.688
    1NGb    C08    9   2.032   4.043  -0.630
    1NGb    C09   10   2.054   3.982  -0.497
    1NGb    C0A   11   2.141   4.040  -0.403
    1NGb    C0B   12   2.160   3.983  -0.276
    1NGb    C0C   13   2.096   3.863  -0.243
    1NGb    DUM   14   2.118   3.799  -0.123
    1NGb    C0E   15   2.009   3.804  -0.336
    1NGb    C0F   16   1.987   3.865  -0.460
    1NGb    C0G   17   1.910   4.025  -0.695
    1NGb    C0H   18   1.889   4.088  -0.818
    1NGb    C0I   19   2.103   4.422  -1.406
    1NGb    C0J   20   2.220   4.427  -1.490
    1NGb    C0K   21   2.205   4.455  -1.623
    1NGb    C0M   22   2.083   4.465  -1.683
    1NGb    C0N   23   2.074   4.476  -1.828
    1NGb    C0O   24   1.976   4.549  -1.882
    1NGb    C0P   25   1.942   4.564  -2.015
    1NGb    C0Q   26   2.028   4.521  -2.108
    1NGb    C0R   27   2.004   4.540  -2.238
    1NGb    C0S   28   2.099   4.494  -2.335
    1NGb    C0T   29   2.084   4.496  -2.465
    1NGb    C0U   30   2.178   4.446  -2.553
    1NGb    C0V   31   2.182   4.451  -2.704
    1NGb    C0W   32   2.086   4.505  -2.777
    1NGb    C0X   33   1.973   4.578  -2.725
    1NGb    N0Y   34   1.865   4.624  -2.707
    1NGb    C0Z   35   2.119   4.484  -2.906
    1NGb    C10   36   2.066   4.532  -3.025
    1NGb    C11   37   1.945   4.599  -3.029
    1NGb    N12   38   1.842   4.662  -3.041
    1NGb    C13   39   2.118   4.479  -3.148
    1NGb    N14   40   2.172   4.457  -3.254
    1NGb    O15   41   2.236   4.414  -2.915
    1NGb    C16   42   2.289   4.382  -2.782
    1NGb    C17   43   2.285   4.234  -2.754
    1NGb    C18   44   2.187   4.158  -2.809
    1NGb    C19   45   2.186   4.027  -2.787
    1NGb    C1A   46   2.282   3.966  -2.714
    1NGb    C1B   47   2.381   4.041  -2.655
    1NGb    C1C   48   2.379   4.179  -2.670
    1NGb    C1D   49   2.421   4.460  -2.770
    1NGb    F1E   50   2.395   4.588  -2.823
    1NGb    F1F   51   2.467   4.478  -2.642
    1NGb    F1G   52   2.509   4.402  -2.839
    1NGb    C1H   53   1.889   4.634  -2.289
    1NGb    C1I   54   1.845   4.726  -2.181
    1NGb    C1J   55   1.942   4.835  -2.172
    1NGb    C1K   56   1.706   4.785  -2.220
    1NGb    C1M   57   1.824   4.652  -2.056
    1NGb    C1N   58   1.966   4.450  -1.607
    1NGb    C1O   59   1.978   4.437  -1.465
    1NGb    H1P   60   2.234   4.584  -1.259
    1NGb    H1Q   61   2.156   4.545  -1.104
    1NGb    H1R   62   2.061   4.612  -1.231
    1NGb    H1S   63   1.970   4.265  -1.242
    1NGb    H1T   64   1.927   4.418  -1.170
    1NGb    H1U   65   2.092   4.377  -0.985
    1NGb    H1V   66   2.156   4.237  -1.076
    1NGb    H1W   67   2.195   4.239  -0.852
    1NGb    H1X   68   2.228   4.133  -0.641
    1NGb    H1Y   69   2.192   4.132  -0.425
    1NGb    H1Z   70   2.228   4.030  -0.207
    1NGb    DUM   71   2.160   3.853  -0.058
    1NGb    H21   72   1.957   3.714  -0.311
    1NGb    H22   73   1.920   3.815  -0.529
    1NGb    H23   74   1.828   3.970  -0.653
    1NGb    H24   75   1.795   4.078  -0.872
    1NGb    H25   76   2.317   4.419  -1.443
    1NGb    H26   77   2.294   4.458  -1.686
    1NGb    H27   78   2.142   4.414  -1.886
    1NGb    H28   79   1.911   4.600  -1.815
    1NGb    H29   80   2.121   4.475  -2.086
    1NGb    H2A   81   2.190   4.451  -2.294
    1NGb    H2B   82   1.993   4.543  -2.496
    1NGb    H2C   83   2.253   4.392  -2.497
    1NGb    H2D   84   2.112   4.199  -2.875
    1NGb    H2E   85   2.110   3.961  -2.827
    1NGb    H2F   86   2.279   3.859  -2.697
    1NGb    H2G   87   2.459   4.001  -2.593
    1NGb    H2H   88   2.449   4.252  -2.635
    1NGb    H2I   89   1.798   4.578  -2.309
    1NGb    H2J   90   1.913   4.685  -2.382
    1NGb    H2K   91   1.963   4.887  -2.266
    1NGb    H2M   92   2.038   4.795  -2.138
    1NGb    H2N   93   1.918   4.901  -2.089
    1NGb    H2O   94   1.625   4.713  -2.239
    1NGb    H2P   95   1.721   4.848  -2.306
    1NGb    H2Q   96   1.680   4.851  -2.137
    1NGb    H2R   97   1.744   4.580  -2.076
    1NGb    H2S   98   1.794   4.714  -1.971
    1NGb    H2T   99   1.869   4.456  -1.652
    1NGb    H2U  100   1.887   4.436  -1.408
    1NGb    C00    1   2.884   4.543  -1.212
    1NGb    N01    2   2.854   4.415  -1.272
    1NGb    C02    3   2.751   4.352  -1.190
    1NGb    C03    4   2.808   4.299  -1.056
    1NGb    O04    5   2.705   4.217  -1.003
    1NGb    C05    6   2.728   4.165  -0.878
    1NGb    C06    7   2.851   4.182  -0.812
    1NGb    C07    8   2.872   4.121  -0.688
    1NGb    C08    9   2.771   4.043  -0.630
    1NGb    C09   10   2.793   3.982  -0.497
    1NGb    C0A   11   2.880   4.040  -0.403
    1NGb    C0B   12   2.899   3.983  -0.276
    1NGb    C0C   13   2.835   3.863  -0.243
    1NGb    DUM   14   2.857   3.799  -0.123
    1NGb    C0E   15   2.748   3.804  -0.336
    1NGb    C0F   16   2.726   3.865  -0.460
    1NGb    C0G   17   2.649   4.025  -0.695
    1NGb    C0H   18   2.628   4.088  -0.818
    1NGb    C0I   19   2.842   4.422  -1.406
    1NGb    C0J   20   2.959   4.427  -1.490
    1NGb    C0K   21   2.944   4.455  -1.623
    1NGb    C0M   22   2.822   4.465  -1.683
    1NGb    C0N   23   2.813   4.476  -1.828
    1NGb    C0O   24   2.715   4.549  -1.882
    1NGb    C0P   25   2.681   4.564  -2.015
    1NGb    C0Q   26   2.767   4.521  -2.108
    1NGb    C0R   27   2.743   4.540  -2.238
    1NGb    C0S   28   2.838   4.494  -2.335
    1NGb    C0T   29   2.823   4.496  -2.465
    1NGb    C0U   30   2.917   4.446  -2.553
    1NGb    C0V   31   2.921   4.451  -2.704
    1NGb    C0W   32   2.825   4.505  -2.777
    1NGb    C0X   33   2.712   4.578  -2.725
    1NGb    N0Y   34   2.604   4.624  -2.707
    1NGb    C0Z   35   2.858   4.484  -2.906
    1NGb    C10   36   2.805   4.532  -3.025
    1NGb    C11   37   2.684   4.599  -3.029
    1NGb    N12   38   2.581   4.662  -3.041
    1NGb    C13   39   2.857   4.479  -3.148
    1NGb    N14   40   2.911   4.457  -3.254
    1NGb    O15   41   2.975   4.414  -2.915
    1NGb    C16   42   3.028   4.382  -2.782
    1NGb    C17   43   3.024   4.234  -2.754
    1NGb    C18   44   2.926   4.158  -2.809
    1NGb    C19   45   2.925   4.027  -2.787
    1NGb    C1A   46   3.021   3.966  -2.714
    1NGb    C1B   47   3.120   4.041  -2.655
    1NGb    C1C   48   3.118   4.179  -2.670
    1NGb    C1D   49   3.160   4.460  -2.770
    1NGb    F1E   50   3.134   4.588  -2.823
    1NGb    F1F   51   3.206   4.478  -2.642
    1NGb    F1G   52   3.248   4.402  -2.839
    1NGb    C1H   53   2.628   4.634  -2.289
    1NGb    C1I   54   2.584   4.726  -2.181
    1NGb    C1J   55   2.681   4.835  -2.172
    1NGb    C1K   56   2.445   4.785  -2.220
    1NGb    C1M   57   2.563   4.652  -2.056
    1NGb    C1N   58   2.705   4.450  -1.607
    1NGb    C1O   59   2.717   4.437  -1.465
    1NGb    H1P   60   2.973   4.584  -1.259
    1NGb    H1Q   61   2.895   4.545  -1.104
    1NGb    H1R   62   2.800   4.612  -1.231
    1NGb    H1S   63   2.709   4.265  -1.242
    1NGb    H1T   64   2.666   4.418  -1.170
    1NGb    H1U   65   2.831   4.377  -0.985
    1NGb    H1V   66   2.895   4.237  -1.076
    1NGb    H1W   67   2.934   4.239  -0.852
    1NGb    H1X   68   2.967   4.133  -0.641
    1NGb    H1Y   69   2.931   4.132  -0.425
    1NGb    H1Z   70   2.967   4.030  -0.207
    1NGb    DUM   71   2.899   3.853  -0.058
    1NGb    H21   72   2.696   3.714  -0.311
    1NGb    H22   73   2.659   3.815  -0.529
    1NGb    H23   74   2.567   3.970  -0.653
    1NGb    H24   75   2.534   4.078  -0.872
    1NGb    H25   76   3.056   4.419  -1.443
    1NGb    H26   77   3.033   4.458  -1.686
    1NGb    H27   78   2.881   4.414  -1.886
    1NGb    H28   79   2.650   4.600  -1.815
    1NGb    H29   80   2.860   4.475  -2.086
    1NGb    H2A   81   2.929   4.451  -2.294
    1NGb    H2B   82   2.732   4.543  -2.496
    1NGb    H2C   83   2.992   4.392  -2.497
    1NGb    H2D   84   2.851   4.199  -2.875
    1NGb    H2E   85   2.849   3.961  -2.827
    1NGb    H2F   86   3.018   3.859  -2.697
    1NGb    H2G   87   3.198   4.001  -2.593
    1NGb    H2H   88   3.188   4.252  -2.635
    1NGb    H2I   89   2.537   4.578  -2.309
    1NGb    H2J   90   2.652   4.685  -2.382
    1NGb    H2K   91   2.702   4.887  -2.266
    1NGb    H2M   92   2.777   4.795  -2.138
    1NGb    H2N   93   2.657   4.901  -2.089
    1NGb    H2O   94   2.364   4.713  -2.239
    1NGb    H2P   95   2.460   4.848  -2.306
    1NGb    H2Q   96   2.419   4.851  -2.137
    1NGb    H2R   97   2.483   4.580  -2.076
    1NGb    H2S   98   2.533   4.714  -1.971
    1NGb    H2T   99   2.608   4.456  -1.652
    1NGb    H2U  100   2.626   4.436  -1.408
    1NGb    C00    1   3.624   4.543  -1.212
    1NGb    N01    2   3.594   4.415  -1.272
    1NGb    C02    3   3.491   4.352  -1.190
    1NGb    C03    4   3.548   4.299  -1.056
    1NGb    O04    5   3.445   4.217  -1.003
    1NGb    C05    6   3.468   4.165  -0.878
    1NGb    C06    7   3.591   4.182  -0.812
    1NGb    C07    8   3.612   4.121  -0.688
    1NGb    C08    9   3.511   4.043  -0.630
    1NGb    C09   10   3.533   3.982  -0.497
    1NGb    C0A   11   3.620   4.040  -0.403
    1NGb    C0B   12   3.639   3.983  -0.276
    1NGb    C0C   13   3.575   3.863  -0.243
    1NGb    DUM   14   3.597   3.799  -0.123
    1NGb    C0E   15   3.488   3.804  -0.336
    1NGb    C0F   16   3.466   3.865  -0.460
    1NGb    C0G   17   3.389   4.025  -0.695
    1NGb    C0H   18   3.368   4.088  -0.818
    1NGb    C0I   19   3.582   4.422  -1.406
    1NGb    C0J   20   3.699   4.427  -1.490
    1NGb    C0K   21   3.684   4.455  -1.623
    1NGb    C0M   22   3.562   4.465  -1.683
    1NGb    C0N   23   3.553   4.476  -1.828
    1NGb    C0O   24   3.455   4.549  -1.882
    1NGb    C0P   25   3.421   4.564  -2.015
    1NGb    C0Q   26   3.507   4.521  -2.108
    1NGb    C0R   27   3.483   4.540  -2.238
    1NGb    C0S   28   3.578   4.494  -2.335
    1NGb    C0T   29   3.563   4.496  -2.465
    1NGb    C0U   30   3.657   4.446  -2.553
    1NGb    C0V   31   3.661   4.451  -2.704
    1NGb    C0W   32   3.565   4.505  -2.777
    1NGb    C0X   33   3.452   4.578  -2.725
    1NGb    N0Y   34   3.344   4.624  -2.707
    1NGb    C0Z   35   3.598   4.484  -2.906
    1NGb    C10   36   3.545   4.532  -3.025
    1NGb    C11   37   3.424   4.599  -3.029
    1NGb    N12   38   3.321   4.662  -3.041
    1NGb    C13   39   3.597   4.479  -3.148
    1NGb    N14   40   3.651   4.457  -3.254
    1NGb    O15   41   3.715   4.414  -2.915
    1NGb    C16   42   3.768   4.382  -2.782
    1NGb    C17   43   3.764   4.234  -2.754
    1NGb    C18   44   3.666   4.158  -2.809
    1NGb    C19   45   3.665   4.027  -2.787
    1NGb    C1A   46   3.761   3.966  -2.714
    1NGb    C1B   47   3.860   4.041  -2.655
    1NGb    C1C   48   3.858   4.179  -2.670
    1NGb    C1D   49   3.900   4.460  -2.770
    1NGb    F1E   50   3.874   4.588  -2.823
    1NGb    F1F   51   3.946   4.478  -2.642
    1NGb    F1G   52   3.988   4.402  -2.839
    1NGb    C1H   53   3.368   4.634  -2.289
    1NGb    C1I   54   3.324   4.726  -2.181
    1NGb    C1J   55   3.421   4.835  -2.172
    1NGb    C1K   56   3.185   4.785  -2.220
    1NGb    C1M   57   3.303   4.652  -2.056
    1NGb    C1N   58   3.445   4.450  -1.607
    1NGb    C1O   59   3.457   4.437  -1.465
    1NGb    H1P   60   3.713   4.584  -1.259
    1NGb    H1Q   61   3.635   4.545  -1.104
    1NGb    H1R   62   3.540   4.612  -1.231
    1NGb    H1S   63   3.449   4.265  -1.242
    1NGb    H1T   64   3.406   4.418  -1.170
    1NGb    H1U   65   3.571   4.377  -0.985
    1NGb    H1V   66   3.635   4.237  -1.076
    1NGb    H1W   67   3.674   4.239  -0.852
    1NGb    H1X   68   3.707   4.133  -0.641
    1NGb    H1Y   69   3.671   4.132  -0.425
    1NGb    H1Z   70   3.707   4.030  -0.207
    1NGb    DUM   71   3.639   3.853  -0.058
    1NGb    H21   72   3.436   3.714  -0.311
    1NGb    H22   73   3.399   3.815  -0.529
    1NGb    H23   74   3.307   3.970  -0.653
    1NGb    H24   75   3.274   4.078  -0.872
    1NGb    H25   76   3.796   4.419  -1.443
    1NGb    H26   77   3.773   4.458  -1.686
    1NGb    H27   78   3.621   4.414  -1.886
    1NGb    H28   79   3.390   4.600  -1.815
    1NGb    H29   80   3.600   4.475  -2.086
    1NGb    H2A   81   3.669   4.451  -2.294
    1NGb    H2B   82   3.472   4.543  -2.496
    1NGb    H2C   83   3.732   4.392  -2.497
    1NGb    H2D   84   3.591   4.199  -2.875
    1NGb    H2E   85   3.589   3.961  -2.827
    1NGb    H2F   86   3.758   3.859  -2.697
    1NGb    H2G   87   3.938   4.001  -2.593
    1NGb    H2H   88   3.928   4.252  -2.635
    1NGb    H2I   89   3.277   4.578  -2.309
    1NGb    H2J   90   3.392   4.685  -2.382
    1NGb    H2K   91   3.442   4.887  -2.266
    1NGb    H2M   92   3.517   4.795  -2.138
    1NGb    H2N   93   3.397   4.901  -2.089
    1NGb    H2O   94   3.104   4.713  -2.239
    1NGb    H2P   95   3.200   4.848  -2.306
    1NGb    H2Q   96   3.159   4.851  -2.137
    1NGb    H2R   97   3.223   4.580  -2.076
    1NGb    H2S   98   3.273   4.714  -1.971
    1NGb    H2T   99   3.348   4.456  -1.652
    1NGb    H2U  100   3.366   4.436  -1.408
    1NGb    C00    1   4.364   4.543  -1.212
    1NGb    N01    2   4.334   4.415  -1.272
    1NGb    C02    3   4.231   4.352  -1.190
    1NGb    C03    4   4.288   4.299  -1.056
    1NGb    O04    5   4.185   4.217  -1.003
    1NGb    C05    6   4.208   4.165  -0.878
    1NGb    C06    7   4.331   4.182  -0.812
    1NGb    C07    8   4.352   4.121  -0.688
    1NGb    C08    9   4.251   4.043  -0.630
    1NGb    C09   10   4.273   3.982  -0.497
    1NGb    C0A   11   4.360   4.040  -0.403
    1NGb    C0B   12   4.379   3.983  -0.276
    1NGb    C0C   13   4.315   3.863  -0.243
    1NGb    DUM   14   4.337   3.799  -0.123
    1NGb    C0E   15   4.228   3.804  -0.336
    1NGb    C0F   16   4.206   3.865  -0.460
    1NGb    C0G   17   4.129   4.025  -0.695
    1NGb    C0H   18   4.108   4.088  -0.818
    1NGb    C0I   19   4.322   4.422  -1.406
    1NGb    C0J   20   4.439   4.427  -1.490
    1NGb    C0K   21   4.424   4.455  -1.623
    1NGb    C0M   22   4.302   4.465  -1.683
    1NGb    C0N   23   4.293   4.476  -1.828
    1NGb    C0O   24   4.195   4.549  -1.882
    1NGb    C0P   25   4.161   4.564  -2.015
    1NGb    C0Q   26   4.247   4.521  -2.108
    1NGb    C0R   27   4.223   4.540  -2.238
    1NGb    C0S   28   4.318   4.494  -2.335
    1NGb    C0T   29   4.303   4.496  -2.465
    1NGb    C0U   30   4.397   4.446  -2.553
    1NGb    C0V   31   4.401   4.451  -2.704
    1NGb    C0W   32   4.305   4.505  -2.777
    1NGb    C0X   33   4.192   4.578  -2.725
    1NGb    N0Y   34   4.084   4.624  -2.707
    1NGb    C0Z   35   4.338   4.484  -2.906
    1NGb    C10   36   4.285   4.532  -3.025
    1NGb    C11   37   4.164   4.599  -3.029
    1NGb    N12   38   4.061   4.662  -3.041
    1NGb    C13   39   4.337   4.479  -3.148
    1NGb    N14   40   4.391   4.457  -3.254
    1NGb    O15   41   4.455   4.414  -2.915
    1NGb    C16   42   4.508   4.382  -2.782
    1NGb    C17   43   4.504   4.234  -2.754
    1NGb    C18   44   4.406   4.158  -2.809
    1NGb    C19   45   4.405   4.027  -2.787
    1NGb    C1A   46   4.501   3.966  -2.714
    1NGb    C1B   47   4.600   4.041  -2.655
    1NGb    C1C   48   4.598   4.179  -2.670
    1NGb    C1D   49   4.640   4.460  -2.770
    1NGb    F1E   50   4.614   4.588  -2.823
    1NGb    F1F   51   4.686   4.478  -2.642
    1NGb    F1G   52   4.728   4.402  -2.839
    1NGb    C1H   53   4.108   4.634  -2.289
    1NGb    C1I   54   4.064   4.726  -2.181
    1NGb    C1J   55   4.161   4.835  -2.172
    1NGb    C1K   56   3.925   4.785  -2.220
    1NGb    C1M   57   4.043   4.652  -2.056
    1NGb    C1N   58   4.185   4.450  -1.607
    1NGb    C1O   59   4.197   4.437  -1.465
    1NGb    H1P   60   4.453   4.584  -1.259
    1NGb    H1Q   61   4.375   4.545  -1.104
    1NGb    H1R   62   4.280   4.612  -1.231
    1NGb    H1S   63   4.189   4.265  -1.242
    1NGb    H1T   64   4.146   4.418  -1.170
    1NGb    H1U   65   4.311   4.377  -0.985
    1NGb    H1V   66   4.375   4.237  -1.076
    1NGb    H1W   67   4.414   4.239  -0.852
    1NGb    H1X   68   4.447   4.133  -0.641
    1NGb    H1Y   69   4.411   4.132  -0.425
    1NGb    H1Z   70   4.447   4.030  -0.207
    1NGb    DUM   71   4.379   3.853  -0.058
    1NGb    H21   72   4.176   3.714  -0.311
    1NGb    H22   73   4.139   3.815  -0.529
    1NGb    H23   74   4.047   3.970  -0.653
    1NGb    H24   75   4.014   4.078  -0.872
    1NGb    H25   76   4.536   4.419  -1.443
    1NGb    H26   77   4.513   4.458  -1.686
    1NGb    H27   78   4.361   4.414  -1.886
    1NGb    H28   79   4.130   4.600  -1.815
    1NGb    H29   80   4.340   4.475  -2.086
    1NGb    H2A   81   4.409   4.451  -2.294
    1NGb    H2B   82   4.212   4.543  -2.496
    1NGb    H2C   83   4.472   4.392  -2.497
    1NGb    H2D   84   4.331   4.199  -2.875
    1NGb    H2E   85   4.329   3.961  -2.827
    1NGb    H2F   86   4.498   3.859  -2.697
    1NGb    H2G   87   4.678   4.001  -2.593
    1NGb    H2H   88   4.668   4.252  -2.635
    1NGb    H2I   89   4.017   4.578  -2.309
    1NGb    H2J   90   4.132   4.685  -2.382
    1NGb    H2K   91   4.182   4.887  -2.266
    1NGb    H2M   92   4.257   4.795  -2.138
    1NGb    H2N   93   4.137   4.901  -2.089
    1NGb    H2O   94   3.844   4.713  -2.239
    1NGb    H2P   95   3.940   4.848  -2.306
    1NGb    H2Q   96   3.899   4.851  -2.137
    1NGb    H2R   97   3.963   4.580  -2.076
    1NGb    H2S   98   4.013   4.714  -1.971
    1NGb    H2T   99   4.088   4.456  -1.652
    1NGb    H2U  100   4.106   4.436  -1.408
    1NGb    C00    1   5.104   4.543  -1.212
    1NGb    N01    2   5.074   4.415  -1.272
    1NGb    C02    3   4.971   4.352  -1.190
    1NGb    C03    4   5.028   4.299  -1.056
    1NGb    O04    5   4.925   4.217  -1.003
    1NGb    C05    6   4.948   4.165  -0.878
    1NGb    C06    7   5.071   4.182  -0.812
    1NGb    C07    8   5.092   4.121  -0.688
    1NGb    C08    9   4.991   4.043  -0.630
    1NGb    C09   10   5.013   3.982  -0.497
    1NGb    C0A   11   5.100   4.040  -0.403
    1NGb    C0B   12   5.119   3.983  -0.276
    1NGb    C0C   13   5.055   3.863  -0.243
    1NGb    DUM   14   5.077   3.799  -0.123
    1NGb    C0E   15   4.968   3.804  -0.336
    1NGb    C0F   16   4.946   3.865  -0.460
    1NGb    C0G   17   4.869   4.025  -0.695
    1NGb    C0H   18   4.848   4.088  -0.818
    1NGb    C0I   19   5.062   4.422  -1.406
    1NGb    C0J   20   5.179   4.427  -1.490
    1NGb    C0K   21   5.164   4.455  -1.623
    1NGb    C0M   22   5.042   4.465  -1.683
    1NGb    C0N   23   5.033   4.476  -1.828
    1NGb    C0O   24   4.935   4.549  -1.882
    1NGb    C0P   25   4.901   4.564  -2.015
    1NGb    C0Q   26   4.987   4.521  -2.108
    1NGb    C0R   27   4.963   4.540  -2.238
    1NGb    C0S   28   5.058   4.494  -2.335
    1NGb    C0T   29   5.043   4.496  -2.465
    1NGb    C0U   30   5.137   4.446  -2.553
    1NGb    C0V   31   5.141   4.451  -2.704
    1NGb    C0W   32   5.045   4.505  -2.777
    1NGb    C0X   33   4.932   4.578  -2.725
    1NGb    N0Y   34   4.824   4.624  -2.707
    1NGb    C0Z   35   5.078   4.484  -2.906
    1NGb    C10   36   5.025   4.532  -3.025
    1NGb    C11   37   4.904   4.599  -3.029
    1NGb    N12   38   4.801   4.662  -3.041
    1NGb    C13   39   5.077   4.479  -3.148
    1NGb    N14   40   5.131   4.457  -3.254
    1NGb    O15   41   5.195   4.414  -2.915
    1NGb    C16   42   5.248   4.382  -2.782
    1NGb    C17   43   5.244   4.234  -2.754
    1NGb    C18   44   5.146   4.158  -2.809
    1NGb    C19   45   5.145   4.027  -2.787
    1NGb    C1A   46   5.241   3.966  -2.714
    1NGb    C1B   47   5.340   4.041  -2.655
    1NGb    C1C   48   5.338   4.179  -2.670
    1NGb    C1D   49   5.380   4.460  -2.770
    1NGb    F1E   50   5.354   4.588  -2.823
    1NGb    F1F   51   5.426   4.478  -2.642
    1NGb    F1G   52   5.468   4.402  -2.839
    1NGb    C1H   53   4.848   4.634  -2.289
    1NGb    C1I   54   4.804   4.726  -2.181
    1NGb    C1J   55   4.901   4.835  -2.172
    1NGb    C1K   56   4.665   4.785  -2.220
    1NGb    C1M   57   4.783   4.652  -2.056
    1NGb    C1N   58   4.925   4.450  -1.607
    1NGb    C1O   59   4.937   4.437  -1.465
    1NGb    H1P   60   5.193   4.584  -1.259
    1NGb    H1Q   61   5.115   4.545  -1.104
    1NGb    H1R   62   5.020   4.612  -1.231
    1NGb    H1S   63   4.929   4.265  -1.242
    1NGb    H1T   64   4.886   4.418  -1.170
    1NGb    H1U   65   5.051   4.377  -0.985
    1NGb    H1V   66   5.115   4.237  -1.076
    1NGb    H1W   67   5.154   4.239  -0.852
    1NGb    H1X   68   5.187   4.133  -0.641
    1NGb    H1Y   69   5.151   4.132  -0.425
    1NGb    H1Z   70   5.187   4.030  -0.207
    1NGb    DUM   71   5.119   3.853  -0.058
    1NGb    H21   72   4.916   3.714  -0.311
    1NGb    H22   73   4.879   3.815  -0.529
    1NGb    H23   74   4.787   3.970  -0.653
    1NGb    H24   75   4.754   4.078  -0.872
    1NGb    H25   76   5.276   4.419  -1.443
    1NGb    H26   77   5.253   4.458  -1.686
    1NGb    H27   78   5.101   4.414  -1.886
    1NGb    H28   79   4.870   4.600  -1.815
    1NGb    H29   80   5.080   4.475  -2.086
    1NGb    H2A   81   5.149   4.451  -2.294
    1NGb    H2B   82   4.952   4.543  -2.496
    1NGb    H2C   83   5.212   4.392  -2.497
    1NGb    H2D   84   5.071   4.199  -2.875
    1NGb    H2E   85   5.069   3.961  -2.827
    1NGb    H2F   86   5.238   3.859  -2.697
    1NGb    H2G   87   5.418   4.001  -2.593
    1NGb    H2H   88   5.408   4.252  -2.635
    1NGb    H2I   89   4.757   4.578  -2.309
    1NGb    H2J   90   4.872   4.685  -2.382
    1NGb    H2K   91   4.922   4.887  -2.266
    1NGb    H2M   92   4.997   4.795  -2.138
    1NGb    H2N   93   4.877   4.901  -2.089
    1NGb    H2O   94   4.584   4.713  -2.239
    1NGb    H2P   95   4.680   4.848  -2.306
    1NGb    H2Q   96   4.639   4.851  -2.137
    1NGb    H2R   97   4.703   4.580  -2.076
    1NGb    H2S   98   4.753   4.714  -1.971
    1NGb    H2T   99   4.828   4.456  -1.652
    1NGb    H2U  100   4.846   4.436  -1.408
    1NGb    C00    1  -0.075   5.283  -1.212
    1NGb    N01    2  -0.105   5.155  -1.272
    1NGb    C02    3  -0.208   5.092  -1.190
    1NGb    C03    4  -0.151   5.039  -1.056
    1NGb    O04    5  -0.254   4.957  -1.003
    1NGb    C05    6  -0.231   4.905  -0.878
    1NGb    C06    7  -0.108   4.922  -0.812
    1NGb    C07    8  -0.087   4.861  -0.688
    1NGb    C08    9  -0.188   4.783  -0.630
    1NGb    C09   10  -0.166   4.722  -0.497
    1NGb    C0A   11  -0.079   4.780  -0.403
    1NGb    C0B   12  -0.060   4.723  -0.276
    1NGb    C0C   13  -0.124   4.603  -0.243
    1NGb    DUM   14  -0.102   4.539  -0.123
    1NGb    C0E   15  -0.211   4.544  -0.336
    1NGb    C0F   16  -0.233   4.605  -0.460
    1NGb    C0G   17  -0.310   4.765  -0.695
    1NGb    C0H   18  -0.331   4.828  -0.818
    1NGb    C0I   19  -0.117   5.162  -1.406
    1NGb    C0J   20   0.000   5.167  -1.490
    1NGb    C0K   21  -0.015   5.195  -1.623
    1NGb    C0M   22  -0.137   5.205  -1.683
    1NGb    C0N   23  -0.146   5.216  -1.828
    1NGb    C0O   24  -0.244   5.289  -1.882
    1NGb    C0P   25  -0.278   5.304  -2.015
    1NGb    C0Q   26  -0.192   5.261  -2.108
    1NGb    C0R   27  -0.216   5.280  -2.238
    1NGb    C0S   28  -0.121   5.234  -2.335
    1NGb    C0T   29  -0.136   5.236  -2.465
    1NGb    C0U   30  -0.042   5.186  -2.553
    1NGb    C0V   31  -0.038   5.191  -2.704
    1NGb    C0W   32  -0.134   5.245  -2.777
    1NGb    C0X   33  -0.247   5.318  -2.725
    1NGb    N0Y   34  -0.355   5.364  -2.707
    1NGb    C0Z   35  -0.101   5.224  -2.906
    1NGb    C10   36  -0.154   5.272  -3.025
    1NGb    C11   37  -0.275   5.339  -3.029
    1NGb    N12   38  -0.378   5.402  -3.041
    1NGb    C13   39  -0.102   5.219  -3.148
    1NGb    N14   40  -0.048   5.197  -3.254
    1NGb    O15   41   0.016   5.154  -2.915
    1NGb    C16   42   0.069   5.122  -2.782
    1NGb    C17   43   0.065   4.974  -2.754
    1NGb    C18   44  -0.033   4.898  -2.809
    1NGb    C19   45  -0.034   4.767  -2.787
    1NGb    C1A   46   0.062   4.706  -2.714
    1NGb    C1B   47   0.161   4.781  -2.655
    1NGb    C1C   48   0.159   4.919  -2.670
    1NGb    C1D   49   0.201   5.200  -2.770
    1NGb    F1E   50   0.175   5.328  -2.823
    1NGb    F1F   51   0.247   5.218  -2.642
    1NGb    F1G   52   0.289   5.142  -2.839
    1NGb    C1H   53  -0.331   5.374  -2.289
    1NGb    C1I   54  -0.375   5.466  -2.181
    1NGb    C1J   55  -0.278   5.575  -2.172
    1NGb    C1K   56  -0.514   5.525  -2.220
    1NGb    C1M   57  -0.396   5.392  -2.056
    1NGb    C1N   58  -0.254   5.190  -1.607
    1NGb    C1O   59  -0.242   5.177  -1.465
    1NGb    H1P   60   0.014   5.324  -1.259
    1NGb    H1Q   61  -0.064   5.285  -1.104
    1NGb    H1R   62  -0.159   5.352  -1.231
    1NGb    H1S   63  -0.250   5.005  -1.242
    1NGb    H1T   64  -0.293   5.158  -1.170
    1NGb    H1U   65  -0.128   5.117  -0.985
    1NGb    H1V   66  -0.064   4.977  -1.076
    1NGb    H1W   67  -0.025   4.979  -0.852
    1NGb    H1X   68   0.008   4.873  -0.641
    1NGb    H1Y   69  -0.028   4.872  -0.425
    1NGb    H1Z   70   0.008   4.770  -0.207
    1NGb    DUM   71  -0.060   4.593  -0.058
    1NGb    H21   72  -0.263   4.454  -0.311
    1NGb    H22   73  -0.300   4.555  -0.529
    1NGb    H23   74  -0.392   4.710  -0.653
    1NGb    H24   75  -0.425   4.818  -0.872
    1NGb    H25   76   0.097   5.159  -1.443
    1NGb    H26   77   0.074   5.198  -1.686
    1NGb    H27   78  -0.078   5.154  -1.886
    1NGb    H28   79  -0.309   5.340  -1.815
    1NGb    H29   80  -0.099   5.215  -2.086
    1NGb    H2A   81  -0.030   5.191  -2.294
    1NGb    H2B   82  -0.227   5.283  -2.496
    1NGb    H2C   83   0.033   5.132  -2.497
    1NGb    H2D   84  -0.108   4.939  -2.875
    1NGb    H2E   85  -0.110   4.701  -2.827
    1NGb    H2F   86   0.059   4.599  -2.697
    1NGb    H2G   87   0.239   4.741  -2.593
    1NGb    H2H   88   0.229   4.992  -2.635
    1NGb    H2I   89  -0.422   5.318  -2.309
    1NGb    H2J   90  -0.307   5.425  -2.382
    1NGb    H2K   91  -0.257   5.627  -2.266
    1NGb    H2M   92  -0.182   5.535  -2.138
    1NGb    H2N   93  -0.302   5.641  -2.089
    1NGb    H2O   94  -0.595   5.453  -2.239
    1NGb    H2P   95  -0.499   5.588  -2.306
    1NGb    H2Q   96  -0.540   5.591  -2.137
    1NGb    H2R   97  -0.476   5.320  -2.076
    1NGb    H2S   98  -0.426   5.454  -1.971
    1NGb    H2T   99  -0.351   5.196  -1.652
    1NGb    H2U  100  -0.333   5.176  -1.408
    1NGb    C00    1   0.665   5.283  -1.212
    1NGb    N01    2   0.635   5.155  -1.272
    1NGb    C02    3   0.532   5.092  -1.190
    1NGb    C03    4   0.589   5.039  -1.056
    1NGb    O04    5   0.486   4.957  -1.003
    1NGb    C05    6   0.509   4.905  -0.878
    1NGb    C06    7   0.632   4.922  -0.812
    1NGb    C07    8   0.653   4.861  -0.688
    1NGb    C08    9   0.552   4.783  -0.630
    1NGb    C09   10   0.574   4.722  -0.497
    1NGb    C0A   11   0.661   4.780  -0.403
    1NGb    C0B   12   0.680   4.723  -0.276
    1NGb    C0C   13   0.616   4.603  -0.243
    1NGb    DUM   14   0.638   4.539  -0.123
    1NGb    C0E   15   0.529   4.544  -0.336
    1NGb    C0F   16   0.507   4.605  -0.460
    1NGb    C0G   17   0.430   4.765  -0.695
    1NGb    C0H   18   0.409   4.828  -0.818
    1NGb    C0I   19   0.623   5.162  -1.406
    1NGb    C0J   20   0.740   5.167  -1.490
    1NGb    C0K   21   0.725   5.195  -1.623
    1NGb    C0M   22   0.603   5.205  -1.683
    1NGb    C0N   23   0.594   5.216  -1.828
    1NGb    C0O   24   0.496   5.289  -1.882
    1NGb    C0P   25   0.462   5.304  -2.015
    1NGb    C0Q   26   0.548   5.261  -2.108
    1NGb    C0R   27   0.524   5.280  -2.238
    1NGb    C0S   28   0.619   5.234  -2.335
    1NGb    C0T   29   0.604   5.236  -2.465
    1NGb    C0U   30   0.698   5.186  -2.553
    1NGb    C0V   31   0.702   5.191  -2.704
    1NGb    C0W   32   0.606   5.245  -2.777
    1NGb    C0X   33   0.493   5.318  -2.725
    1NGb    N0Y   34   0.385   5.364  -2.707
    1NGb    C0Z   35   0.639   5.224  -2.906
    1NGb    C10   36   0.586   5.272  -3.025
    1NGb    C11   37   0.465   5.339  -3.029
    1NGb    N12   38   0.362   5.402  -3.041
    1NGb    C13   39   0.638   5.219  -3.148
    1NGb    N14   40   0.692   5.197  -3.254
    1NGb    O15   41   0.756   5.154  -2.915
    1NGb    C16   42   0.809   5.122  -2.782
    1NGb    C17   43   0.805   4.974  -2.754
    1NGb    C18   44   0.707   4.898  -2.809
    1NGb    C19   45   0.706   4.767  -2.787
    1NGb    C1A   46   0.802   4.706  -2.714
    1NGb    C1B   47   0.901   4.781  -2.655
    1NGb    C1C   48   0.899   4.919  -2.670
    1NGb    C1D   49   0.941   5.200  -2.770
    1NGb    F1E   50   0.915   5.328  -2.823
    1NGb    F1F   51   0.987   5.218  -2.642
    1NGb    F1G   52   1.029   5.142  -2.839
    1NGb    C1H   53   0.409   5.374  -2.289
    1NGb    C1I   54   0.365   5.466  -2.181
    1NGb    C1J   55   0.462   5.575  -2.172
    1NGb    C1K   56   0.226   5.525  -2.220
    1NGb    C1M   57   0.344   5.392  -2.056
    1NGb    C1N   58   0.486   5.190  -1.607
    1NGb    C1O   59   0.498   5.177  -1.465
    1NGb    H1P   60   0.754   5.324  -1.259
    1NGb    H1Q   61   0.676   5.285  -1.104
    1NGb    H1R   62   0.581   5.352  -1.231
    1NGb    H1S   63   0.490   5.005  -1.242
    1NGb    H1T   64   0.447   5.158  -1.170
    1NGb    H1U   65   0.612   5.117  -0.985
    1NGb    H1V   66   0.676   4.977  -1.076
    1NGb    H1W   67   0.715   4.979  -0.852
    1NGb    H1X   68   0.748   4.873  -0.641
    1NGb    H1Y   69   0.712   4.872  -0.425
    1NGb    H1Z   70   0.748   4.770  -0.207
    1NGb    DUM   71   0.680   4.593  -0.058
    1NGb    H21   72   0.477   4.454  -0.311
    1NGb    H22   73   0.440   4.555  -0.529
    1NGb    H23   74   0.348   4.710  -0.653
    1NGb    H24   75   0.315   4.818  -0.872
    1NGb    H25   76   0.837   5.159  -1.443
    1NGb    H26   77   0.814   5.198  -1.686
    1NGb    H27   78   0.662   5.154  -1.886
    1NGb    H28   79   0.431   5.340  -1.815
    1NGb    H29   80   0.641   5.215  -2.086
    1NGb    H2A   81   0.710   5.191  -2.294
    1NGb    H2B   82   0.513   5.283  -2.496
    1NGb    H2C   83   0.773   5.132  -2.497
    1NGb    H2D   84   0.632   4.939  -2.875
    1NGb    H2E   85   0.630   4.701  -2.827
    1NGb    H2F   86   0.799   4.599  -2.697
    1NGb    H2G   87   0.979   4.741  -2.593
    1NGb    H2H   88   0.969   4.992  -2.635
    1NGb    H2I   89   0.318   5.318  -2.309
    1NGb    H2J   90   0.433   5.425  -2.382
    1NGb    H2K   91   0.483   5.627  -2.266
    1NGb    H2M   92   0.558   5.535  -2.138
    1NGb    H2N   93   0.438   5.641  -2.089
    1NGb    H2O   94   0.145   5.453  -2.239
    1NGb    H2P   95   0.241   5.588  -2.306
    1NGb    H2Q   96   0.200   5.591  -2.137
    1NGb    H2R   97   0.264   5.320  -2.076
    1NGb    H2S   98   0.314   5.454  -1.971
    1NGb    H2T   99   0.389   5.196  -1.652
    1NGb    H2U  100   0.407   5.176  -1.408
    1NGb    C00    1   1.405   5.283  -1.212
    1NGb    N01    2   1.375   5.155  -1.272
    1NGb    C02    3   1.272   5.092  -1.190
    1NGb    C03    4   1.329   5.039  -1.056
    1NGb    O04    5   1.226   4.957  -1.003
    1NGb    C05    6   1.249   4.905  -0.878
    1NGb    C06    7   1.372   4.922  -0.812
    1NGb    C07    8   1.393   4.861  -0.688
    1NGb    C08    9   1.292   4.783  -0.630
    1NGb    C09   10   1.314   4.722  -0.497
    1NGb    C0A   11   1.401   4.780  -0.403
    1NGb    C0B   12   1.420   4.723  -0.276
    1NGb    C0C   13   1.356   4.603  -0.243
    1NGb    DUM   14   1.378   4.539  -0.123
    1NGb    C0E   15   1.269   4.544  -0.336
    1NGb    C0F   16   1.247   4.605  -0.460
    1NGb    C0G   17   1.170   4.765  -0.695
    1NGb    C0H   18   1.149   4.828  -0.818
    1NGb    C0I   19   1.363   5.162  -1.406
    1NGb    C0J   20   1.480   5.167  -1.490
    1NGb    C0K   21   1.465   5.195  -1.623
    1NGb    C0M   22   1.343   5.205  -1.683
    1NGb    C0N   23   1.334   5.216  -1.828
    1NGb    C0O   24   1.236   5.289  -1.882
    1NGb    C0P   25   1.202   5.304  -2.015
    1NGb    C0Q   26   1.288   5.261  -2.108
    1NGb    C0R   27   1.264   5.280  -2.238
    1NGb    C0S   28   1.359   5.234  -2.335
    1NGb    C0T   29   1.344   5.236  -2.465
    1NGb    C0U   30   1.438   5.186  -2.553
    1NGb    C0V   31   1.442   5.191  -2.704
    1NGb    C0W   32   1.346   5.245  -2.777
    1NGb    C0X   33   1.233   5.318  -2.725
    1NGb    N0Y   34   1.125   5.364  -2.707
    1NGb    C0Z   35   1.379   5.224  -2.906
    1NGb    C10   36   1.326   5.272  -3.025
    1NGb    C11   37   1.205   5.339  -3.029
    1NGb    N12   38   1.102   5.402  -3.041
    1NGb    C13   39   1.378   5.219  -3.148
    1NGb    N14   40   1.432   5.197  -3.254
    1NGb    O15   41   1.496   5.154  -2.915
    1NGb    C16   42   1.549   5.122  -2.782
    1NGb    C17   43   1.545   4.974  -2.754
    1NGb    C18   44   1.447   4.898  -2.809
    1NGb    C19   45   1.446   4.767  -2.787
    1NGb    C1A   46   1.542   4.706  -2.714
    1NGb    C1B   47   1.641   4.781  -2.655
    1NGb    C1C   48   1.639   4.919  -2.670
    1NGb    C1D   49   1.681   5.200  -2.770
    1NGb    F1E   50   1.655   5.328  -2.823
    1NGb    F1F   51   1.727   5.218  -2.642
    1NGb    F1G   52   1.769   5.142  -2.839
    1NGb    C1H   53   1.149   5.374  -2.289
    1NGb    C1I   54   1.105   5.466  -2.181
    1NGb    C1J   55   1.202   5.575  -2.172
    1NGb    C1K   56   0.966   5.525  -2.220
    1NGb    C1M   57   1.084   5.392  -2.056
    1NGb    C1N   58   1.226   5.190  -1.607
    1NGb    C1O   59   1.238   5.177  -1.465
    1NGb    H1P   60   1.494   5.324  -1.259
    1NGb    H1Q   61   1.416   5.285  -1.104
    1NGb    H1R   62   1.321   5.352  -1.231
    1NGb    H1S   63   1.230   5.005  -1.242
    1NGb    H1T   64   1.187   5.158  -1.170
    1NGb    H1U   65   1.352   5.117  -0.985
    1NGb    H1V   66   1.416   4.977  -1.076
    1NGb    H1W   67   1.455   4.979  -0.852
    1NGb    H1X   68   1.488   4.873  -0.641
    1NGb    H1Y   69   1.452   4.872  -0.425
    1NGb    H1Z   70   1.488   4.770  -0.207
    1NGb    DUM   71   1.420   4.593  -0.058
    1NGb    H21   72   1.217   4.454  -0.311
    1NGb    H22   73   1.180   4.555  -0.529
    1NGb    H23   74   1.088   4.710  -0.653
    1NGb    H24   75   1.055   4.818  -0.872
    1NGb    H25   76   1.577   5.159  -1.443
    1NGb    H26   77   1.554   5.198  -1.686
    1NGb    H27   78   1.402   5.154  -1.886
    1NGb    H28   79   1.171   5.340  -1.815
    1NGb    H29   80   1.381   5.215  -2.086
    1NGb    H2A   81   1.450   5.191  -2.294
    1NGb    H2B   82   1.253   5.283  -2.496
    1NGb    H2C   83   1.513   5.132  -2.497
    1NGb    H2D   84   1.372   4.939  -2.875
    1NGb    H2E   85   1.370   4.701  -2.827
    1NGb    H2F   86   1.539   4.599  -2.697
    1NGb    H2G   87   1.719   4.741  -2.593
    1NGb    H2H   88   1.709   4.992  -2.635
    1NGb    H2I   89   1.058   5.318  -2.309
    1NGb    H2J   90   1.173   5.425  -2.382
    1NGb    H2K   91   1.223   5.627  -2.266
    1NGb    H2M   92   1.298   5.535  -2.138
    1NGb    H2N   93   1.178   5.641  -2.089
    1NGb    H2O   94   0.885   5.453  -2.239
    1NGb    H2P   95   0.981   5.588  -2.306
    1NGb    H2Q   96   0.940   5.591  -2.137
    1NGb    H2R   97   1.004   5.320  -2.076
    1NGb    H2S   98   1.054   5.454  -1.971
    1NGb    H2T   99   1.129   5.196  -1.652
    1NGb    H2U  100   1.147   5.176  -1.408
    1NGb    C00    1   2.145   5.283  -1.212
    1NGb    N01    2   2.115   5.155  -1.272
    1NGb    C02    3   2.012   5.092  -1.190
    1NGb    C03    4   2.069   5.039  -1.056
    1NGb    O04    5   1.966   4.957  -1.003
    1NGb    C05    6   1.989   4.905  -0.878
    1NGb    C06    7   2.112   4.922  -0.812
    1NGb    C07    8   2.133   4.861  -0.688
    1NGb    C08    9   2.032   4.783  -0.630
    1NGb    C09   10   2.054   4.722  -0.497
    1NGb    C0A   11   2.141   4.780  -0.403
    1NGb    C0B   12   2.160   4.723  -0.276
    1NGb    C0C   13   2.096   4.603  -0.243
    1NGb    DUM   14   2.118   4.539  -0.123
    1NGb    C0E   15   2.009   4.544  -0.336
    1NGb    C0F   16   1.987   4.605  -0.460
    1NGb    C0G   17   1.910   4.765  -0.695
    1NGb    C0H   18   1.889   4.828  -0.818
    1NGb    C0I   19   2.103   5.162  -1.406
    1NGb    C0J   20   2.220   5.167  -1.490
    1NGb    C0K   21   2.205   5.195  -1.623
    1NGb    C0M   22   2.083   5.205  -1.683
    1NGb    C0N   23   2.074   5.216  -1.828
    1NGb    C0O   24   1.976   5.289  -1.882
    1NGb    C0P   25   1.942   5.304  -2.015
    1NGb    C0Q   26   2.028   5.261  -2.108
    1NGb    C0R   27   2.004   5.280  -2.238
    1NGb    C0S   28   2.099   5.234  -2.335
    1NGb    C0T   29   2.084   5.236  -2.465
    1NGb    C0U   30   2.178   5.186  -2.553
    1NGb    C0V   31   2.182   5.191  -2.704
    1NGb    C0W   32   2.086   5.245  -2.777
    1NGb    C0X   33   1.973   5.318  -2.725
    1NGb    N0Y   34   1.865   5.364  -2.707
    1NGb    C0Z   35   2.119   5.224  -2.906
    1NGb    C10   36   2.066   5.272  -3.025
    1NGb    C11   37   1.945   5.339  -3.029
    1NGb    N12   38   1.842   5.402  -3.041
    1NGb    C13   39   2.118   5.219  -3.148
    1NGb    N14   40   2.172   5.197  -3.254
    1NGb    O15   41   2.236   5.154  -2.915
    1NGb    C16   42   2.289   5.122  -2.782
    1NGb    C17   43   2.285   4.974  -2.754
    1NGb    C18   44   2.187   4.898  -2.809
    1NGb    C19   45   2.186   4.767  -2.787
    1NGb    C1A   46   2.282   4.706  -2.714
    1NGb    C1B   47   2.381   4.781  -2.655
    1NGb    C1C   48   2.379   4.919  -2.670
    1NGb    C1D   49   2.421   5.200  -2.770
    1NGb    F1E   50   2.395   5.328  -2.823
    1NGb    F1F   51   2.467   5.218  -2.642
    1NGb    F1G   52   2.509   5.142  -2.839
    1NGb    C1H   53   1.889   5.374  -2.289
    1NGb    C1I   54   1.845   5.466  -2.181
    1NGb    C1J   55   1.942   5.575  -2.172
    1NGb    C1K   56   1.706   5.525  -2.220
    1NGb    C1M   57   1.824   5.392  -2.056
    1NGb    C1N   58   1.966   5.190  -1.607
    1NGb    C1O   59   1.978   5.177  -1.465
    1NGb    H1P   60   2.234   5.324  -1.259
    1NGb    H1Q   61   2.156   5.285  -1.104
    1NGb    H1R   62   2.061   5.352  -1.231
    1NGb    H1S   63   1.970   5.005  -1.242
    1NGb    H1T   64   1.927   5.158  -1.170
    1NGb    H1U   65   2.092   5.117  -0.985
    1NGb    H1V   66   2.156   4.977  -1.076
    1NGb    H1W   67   2.195   4.979  -0.852
    1NGb    H1X   68   2.228   4.873  -0.641
    1NGb    H1Y   69   2.192   4.872  -0.425
    1NGb    H1Z   70   2.228   4.770  -0.207
    1NGb    DUM   71   2.160   4.593  -0.058
    1NGb    H21   72   1.957   4.454  -0.311
    1NGb    H22   73   1.920   4.555  -0.529
    1NGb    H23   74   1.828   4.710  -0.653
    1NGb    H24   75   1.795   4.818  -0.872
    1NGb    H25   76   2.317   5.159  -1.443
    1NGb    H26   77   2.294   5.198  -1.686
    1NGb    H27   78   2.142   5.154  -1.886
    1NGb    H28   79   1.911   5.340  -1.815
    1NGb    H29   80   2.121   5.215  -2.086
    1NGb    H2A   81   2.190   5.191  -2.294
    1NGb    H2B   82   1.993   5.283  -2.496
    1NGb    H2C   83   2.253   5.132  -2.497
    1NGb    H2D   84   2.112   4.939  -2.875
    1NGb    H2E   85   2.110   4.701  -2.827
    1NGb    H2F   86   2.279   4.599  -2.697
    1NGb    H2G   87   2.459   4.741  -2.593
    1NGb    H2H   88   2.449   4.992  -2.635
    1NGb    H2I   89   1.798   5.318  -2.309
    1NGb    H2J   90   1.913   5.425  -2.382
    1NGb    H2K   91   1.963   5.627  -2.266
    1NGb    H2M   92   2.038   5.535  -2.138
    1NGb    H2N   93   1.918   5.641  -2.089
    1NGb    H2O   94   1.625   5.453  -2.239
    1NGb    H2P   95   1.721   5.588  -2.306
    1NGb    H2Q   96   1.680   5.591  -2.137
    1NGb    H2R   97   1.744   5.320  -2.076
    1NGb    H2S   98   1.794   5.454  -1.971
    1NGb    H2T   99   1.869   5.196  -1.652
    1NGb    H2U  100   1.887   5.176  -1.408
    1NGb    C00    1   2.884   5.283  -1.212
    1NGb    N01    2   2.854   5.155  -1.272
    1NGb    C02    3   2.751   5.092  -1.190
    1NGb    C03    4   2.808   5.039  -1.056
    1NGb    O04    5   2.705   4.957  -1.003
    1NGb    C05    6   2.728   4.905  -0.878
    1NGb    C06    7   2.851   4.922  -0.812
    1NGb    C07    8   2.872   4.861  -0.688
    1NGb    C08    9   2.771   4.783  -0.630
    1NGb    C09   10   2.793   4.722  -0.497
    1NGb    C0A   11   2.880   4.780  -0.403
    1NGb    C0B   12   2.899   4.723  -0.276
    1NGb    C0C   13   2.835   4.603  -0.243
    1NGb    DUM   14   2.857   4.539  -0.123
    1NGb    C0E   15   2.748   4.544  -0.336
    1NGb    C0F   16   2.726   4.605  -0.460
    1NGb    C0G   17   2.649   4.765  -0.695
    1NGb    C0H   18   2.628   4.828  -0.818
    1NGb    C0I   19   2.842   5.162  -1.406
    1NGb    C0J   20   2.959   5.167  -1.490
    1NGb    C0K   21   2.944   5.195  -1.623
    1NGb    C0M   22   2.822   5.205  -1.683
    1NGb    C0N   23   2.813   5.216  -1.828
    1NGb    C0O   24   2.715   5.289  -1.882
    1NGb    C0P   25   2.681   5.304  -2.015
    1NGb    C0Q   26   2.767   5.261  -2.108
    1NGb    C0R   27   2.743   5.280  -2.238
    1NGb    C0S   28   2.838   5.234  -2.335
    1NGb    C0T   29   2.823   5.236  -2.465
    1NGb    C0U   30   2.917   5.186  -2.553
    1NGb    C0V   31   2.921   5.191  -2.704
    1NGb    C0W   32   2.825   5.245  -2.777
    1NGb    C0X   33   2.712   5.318  -2.725
    1NGb    N0Y   34   2.604   5.364  -2.707
    1NGb    C0Z   35   2.858   5.224  -2.906
    1NGb    C10   36   2.805   5.272  -3.025
    1NGb    C11   37   2.684   5.339  -3.029
    1NGb    N12   38   2.581   5.402  -3.041
    1NGb    C13   39   2.857   5.219  -3.148
    1NGb    N14   40   2.911   5.197  -3.254
    1NGb    O15   41   2.975   5.154  -2.915
    1NGb    C16   42   3.028   5.122  -2.782
    1NGb    C17   43   3.024   4.974  -2.754
    1NGb    C18   44   2.926   4.898  -2.809
    1NGb    C19   45   2.925   4.767  -2.787
    1NGb    C1A   46   3.021   4.706  -2.714
    1NGb    C1B   47   3.120   4.781  -2.655
    1NGb    C1C   48   3.118   4.919  -2.670
    1NGb    C1D   49   3.160   5.200  -2.770
    1NGb    F1E   50   3.134   5.328  -2.823
    1NGb    F1F   51   3.206   5.218  -2.642
    1NGb    F1G   52   3.248   5.142  -2.839
    1NGb    C1H   53   2.628   5.374  -2.289
    1NGb    C1I   54   2.584   5.466  -2.181
    1NGb    C1J   55   2.681   5.575  -2.172
    1NGb    C1K   56   2.445   5.525  -2.220
    1NGb    C1M   57   2.563   5.392  -2.056
    1NGb    C1N   58   2.705   5.190  -1.607
    1NGb    C1O   59   2.717   5.177  -1.465
    1NGb    H1P   60   2.973   5.324  -1.259
    1NGb    H1Q   61   2.895   5.285  -1.104
    1NGb    H1R   62   2.800   5.352  -1.231
    1NGb    H1S   63   2.709   5.005  -1.242
    1NGb    H1T   64   2.666   5.158  -1.170
    1NGb    H1U   65   2.831   5.117  -0.985
    1NGb    H1V   66   2.895   4.977  -1.076
    1NGb    H1W   67   2.934   4.979  -0.852
    1NGb    H1X   68   2.967   4.873  -0.641
    1NGb    H1Y   69   2.931   4.872  -0.425
    1NGb    H1Z   70   2.967   4.770  -0.207
    1NGb    DUM   71   2.899   4.593  -0.058
    1NGb    H21   72   2.696   4.454  -0.311
    1NGb    H22   73   2.659   4.555  -0.529
    1NGb    H23   74   2.567   4.710  -0.653
    1NGb    H24   75   2.534   4.818  -0.872
    1NGb    H25   76   3.056   5.159  -1.443
    1NGb    H26   77   3.033   5.198  -1.686
    1NGb    H27   78   2.881   5.154  -1.886
    1NGb    H28   79   2.650   5.340  -1.815
    1NGb    H29   80   2.860   5.215  -2.086
    1NGb    H2A   81   2.929   5.191  -2.294
    1NGb    H2B   82   2.732   5.283  -2.496
    1NGb    H2C   83   2.992   5.132  -2.497
    1NGb    H2D   84   2.851   4.939  -2.875
    1NGb    H2E   85   2.849   4.701  -2.827
    1NGb    H2F   86   3.018   4.599  -2.697
    1NGb    H2G   87   3.198   4.741  -2.593
    1NGb    H2H   88   3.188   4.992  -2.635
    1NGb    H2I   89   2.537   5.318  -2.309
    1NGb    H2J   90   2.652   5.425  -2.382
    1NGb    H2K   91   2.702   5.627  -2.266
    1NGb    H2M   92   2.777   5.535  -2.138
    1NGb    H2N   93   2.657   5.641  -2.089
    1NGb    H2O   94   2.364   5.453  -2.239
    1NGb    H2P   95   2.460   5.588  -2.306
    1NGb    H2Q   96   2.419   5.591  -2.137
    1NGb    H2R   97   2.483   5.320  -2.076
    1NGb    H2S   98   2.533   5.454  -1.971
    1NGb    H2T   99   2.608   5.196  -1.652
    1NGb    H2U  100   2.626   5.176  -1.408
    1NGb    C00    1   3.624   5.283  -1.212
    1NGb    N01    2   3.594   5.155  -1.272
    1NGb    C02    3   3.491   5.092  -1.190
    1NGb    C03    4   3.548   5.039  -1.056
    1NGb    O04    5   3.445   4.957  -1.003
    1NGb    C05    6   3.468   4.905  -0.878
    1NGb    C06    7   3.591   4.922  -0.812
    1NGb    C07    8   3.612   4.861  -0.688
    1NGb    C08    9   3.511   4.783  -0.630
    1NGb    C09   10   3.533   4.722  -0.497
    1NGb    C0A   11   3.620   4.780  -0.403
    1NGb    C0B   12   3.639   4.723  -0.276
    1NGb    C0C   13   3.575   4.603  -0.243
    1NGb    DUM   14   3.597   4.539  -0.123
    1NGb    C0E   15   3.488   4.544  -0.336
    1NGb    C0F   16   3.466   4.605  -0.460
    1NGb    C0G   17   3.389   4.765  -0.695
    1NGb    C0H   18   3.368   4.828  -0.818
    1NGb    C0I   19   3.582   5.162  -1.406
    1NGb    C0J   20   3.699   5.167  -1.490
    1NGb    C0K   21   3.684   5.195  -1.623
    1NGb    C0M   22   3.562   5.205  -1.683
    1NGb    C0N   23   3.553   5.216  -1.828
    1NGb    C0O   24   3.455   5.289  -1.882
    1NGb    C0P   25   3.421   5.304  -2.015
    1NGb    C0Q   26   3.507   5.261  -2.108
    1NGb    C0R   27   3.483   5.280  -2.238
    1NGb    C0S   28   3.578   5.234  -2.335
    1NGb    C0T   29   3.563   5.236  -2.465
    1NGb    C0U   30   3.657   5.186  -2.553
    1NGb    C0V   31   3.661   5.191  -2.704
    1NGb    C0W   32   3.565   5.245  -2.777
    1NGb    C0X   33   3.452   5.318  -2.725
    1NGb    N0Y   34   3.344   5.364  -2.707
    1NGb    C0Z   35   3.598   5.224  -2.906
    1NGb    C10   36   3.545   5.272  -3.025
    1NGb    C11   37   3.424   5.339  -3.029
    1NGb    N12   38   3.321   5.402  -3.041
    1NGb    C13   39   3.597   5.219  -3.148
    1NGb    N14   40   3.651   5.197  -3.254
    1NGb    O15   41   3.715   5.154  -2.915
    1NGb    C16   42   3.768   5.122  -2.782
    1NGb    C17   43   3.764   4.974  -2.754
    1NGb    C18   44   3.666   4.898  -2.809
    1NGb    C19   45   3.665   4.767  -2.787
    1NGb    C1A   46   3.761   4.706  -2.714
    1NGb    C1B   47   3.860   4.781  -2.655
    1NGb    C1C   48   3.858   4.919  -2.670
    1NGb    C1D   49   3.900   5.200  -2.770
    1NGb    F1E   50   3.874   5.328  -2.823
    1NGb    F1F   51   3.946   5.218  -2.642
    1NGb    F1G   52   3.988   5.142  -2.839
    1NGb    C1H   53   3.368   5.374  -2.289
    1NGb    C1I   54   3.324   5.466  -2.181
    1NGb    C1J   55   3.421   5.575  -2.172
    1NGb    C1K   56   3.185   5.525  -2.220
    1NGb    C1M   57   3.303   5.392  -2.056
    1NGb    C1N   58   3.445   5.190  -1.607
    1NGb    C1O   59   3.457   5.177  -1.465
    1NGb    H1P   60   3.713   5.324  -1.259
    1NGb    H1Q   61   3.635   5.285  -1.104
    1NGb    H1R   62   3.540   5.352  -1.231
    1NGb    H1S   63   3.449   5.005  -1.242
    1NGb    H1T   64   3.406   5.158  -1.170
    1NGb    H1U   65   3.571   5.117  -0.985
    1NGb    H1V   66   3.635   4.977  -1.076
    1NGb    H1W   67   3.674   4.979  -0.852
    1NGb    H1X   68   3.707   4.873  -0.641
    1NGb    H1Y   69   3.671   4.872  -0.425
    1NGb    H1Z   70   3.707   4.770  -0.207
    1NGb    DUM   71   3.639   4.593  -0.058
    1NGb    H21   72   3.436   4.454  -0.311
    1NGb    H22   73   3.399   4.555  -0.529
    1NGb    H23   74   3.307   4.710  -0.653
    1NGb    H24   75   3.274   4.818  -0.872
    1NGb    H25   76   3.796   5.159  -1.443
    1NGb    H26   77   3.773   5.198  -1.686
    1NGb    H27   78   3.621   5.154  -1.886
    1NGb    H28   79   3.390   5.340  -1.815
    1NGb    H29   80   3.600   5.215  -2.086
    1NGb    H2A   81   3.669   5.191  -2.294
    1NGb    H2B   82   3.472   5.283  -2.496
    1NGb    H2C   83   3.732   5.132  -2.497
    1NGb    H2D   84   3.591   4.939  -2.875
    1NGb    H2E   85   3.589   4.701  -2.827
    1NGb    H2F   86   3.758   4.599  -2.697
    1NGb    H2G   87   3.938   4.741  -2.593
    1NGb    H2H   88   3.928   4.992  -2.635
    1NGb    H2I   89   3.277   5.318  -2.309
    1NGb    H2J   90   3.392   5.425  -2.382
    1NGb    H2K   91   3.442   5.627  -2.266
    1NGb    H2M   92   3.517   5.535  -2.138
    1NGb    H2N   93   3.397   5.641  -2.089
    1NGb    H2O   94   3.104   5.453  -2.239
    1NGb    H2P   95   3.200   5.588  -2.306
    1NGb    H2Q   96   3.159   5.591  -2.137
    1NGb    H2R   97   3.223   5.320  -2.076
    1NGb    H2S   98   3.273   5.454  -1.971
    1NGb    H2T   99   3.348   5.196  -1.652
    1NGb    H2U  100   3.366   5.176  -1.408
    1NGb    C00    1   4.364   5.283  -1.212
    1NGb    N01    2   4.334   5.155  -1.272
    1NGb    C02    3   4.231   5.092  -1.190
    1NGb    C03    4   4.288   5.039  -1.056
    1NGb    O04    5   4.185   4.957  -1.003
    1NGb    C05    6   4.208   4.905  -0.878
    1NGb    C06    7   4.331   4.922  -0.812
    1NGb    C07    8   4.352   4.861  -0.688
    1NGb    C08    9   4.251   4.783  -0.630
    1NGb    C09   10   4.273   4.722  -0.497
    1NGb    C0A   11   4.360   4.780  -0.403
    1NGb    C0B   12   4.379   4.723  -0.276
    1NGb    C0C   13   4.315   4.603  -0.243
    1NGb    DUM   14   4.337   4.539  -0.123
    1NGb    C0E   15   4.228   4.544  -0.336
    1NGb    C0F   16   4.206   4.605  -0.460
    1NGb    C0G   17   4.129   4.765  -0.695
    1NGb    C0H   18   4.108   4.828  -0.818
    1NGb    C0I   19   4.322   5.162  -1.406
    1NGb    C0J   20   4.439   5.167  -1.490
    1NGb    C0K   21   4.424   5.195  -1.623
    1NGb    C0M   22   4.302   5.205  -1.683
    1NGb    C0N   23   4.293   5.216  -1.828
    1NGb    C0O   24   4.195   5.289  -1.882
    1NGb    C0P   25   4.161   5.304  -2.015
    1NGb    C0Q   26   4.247   5.261  -2.108
    1NGb    C0R   27   4.223   5.280  -2.238
    1NGb    C0S   28   4.318   5.234  -2.335
    1NGb    C0T   29   4.303   5.236  -2.465
    1NGb    C0U   30   4.397   5.186  -2.553
    1NGb    C0V   31   4.401   5.191  -2.704
    1NGb    C0W   32   4.305   5.245  -2.777
    1NGb    C0X   33   4.192   5.318  -2.725
    1NGb    N0Y   34   4.084   5.364  -2.707
    1NGb    C0Z   35   4.338   5.224  -2.906
    1NGb    C10   36   4.285   5.272  -3.025
    1NGb    C11   37   4.164   5.339  -3.029
    1NGb    N12   38   4.061   5.402  -3.041
    1NGb    C13   39   4.337   5.219  -3.148
    1NGb    N14   40   4.391   5.197  -3.254
    1NGb    O15   41   4.455   5.154  -2.915
    1NGb    C16   42   4.508   5.122  -2.782
    1NGb    C17   43   4.504   4.974  -2.754
    1NGb    C18   44   4.406   4.898  -2.809
    1NGb    C19   45   4.405   4.767  -2.787
    1NGb    C1A   46   4.501   4.706  -2.714
    1NGb    C1B   47   4.600   4.781  -2.655
    1NGb    C1C   48   4.598   4.919  -2.670
    1NGb    C1D   49   4.640   5.200  -2.770
    1NGb    F1E   50   4.614   5.328  -2.823
    1NGb    F1F   51   4.686   5.218  -2.642
    1NGb    F1G   52   4.728   5.142  -2.839
    1NGb    C1H   53   4.108   5.374  -2.289
    1NGb    C1I   54   4.064   5.466  -2.181
    1NGb    C1J   55   4.161   5.575  -2.172
    1NGb    C1K   56   3.925   5.525  -2.220
    1NGb    C1M   57   4.043   5.392  -2.056
    1NGb    C1N   58   4.185   5.190  -1.607
    1NGb    C1O   59   4.197   5.177  -1.465
    1NGb    H1P   60   4.453   5.324  -1.259
    1NGb    H1Q   61   4.375   5.285  -1.104
    1NGb    H1R   62   4.280   5.352  -1.231
    1NGb    H1S   63   4.189   5.005  -1.242
    1NGb    H1T   64   4.146   5.158  -1.170
    1NGb    H1U   65   4.311   5.117  -0.985
    1NGb    H1V   66   4.375   4.977  -1.076
    1NGb    H1W   67   4.414   4.979  -0.852
    1NGb    H1X   68   4.447   4.873  -0.641
    1NGb    H1Y   69   4.411   4.872  -0.425
    1NGb    H1Z   70   4.447   4.770  -0.207
    1NGb    DUM   71   4.379   4.593  -0.058
    1NGb    H21   72   4.176   4.454  -0.311
    1NGb    H22   73   4.139   4.555  -0.529
    1NGb    H23   74   4.047   4.710  -0.653
    1NGb    H24   75   4.014   4.818  -0.872
    1NGb    H25   76   4.536   5.159  -1.443
    1NGb    H26   77   4.513   5.198  -1.686
    1NGb    H27   78   4.361   5.154  -1.886
    1NGb    H28   79   4.130   5.340  -1.815
    1NGb    H29   80   4.340   5.215  -2.086
    1NGb    H2A   81   4.409   5.191  -2.294
    1NGb    H2B   82   4.212   5.283  -2.496
    1NGb    H2C   83   4.472   5.132  -2.497
    1NGb    H2D   84   4.331   4.939  -2.875
    1NGb    H2E   85   4.329   4.701  -2.827
    1NGb    H2F   86   4.498   4.599  -2.697
    1NGb    H2G   87   4.678   4.741  -2.593
    1NGb    H2H   88   4.668   4.992  -2.635
    1NGb    H2I   89   4.017   5.318  -2.309
    1NGb    H2J   90   4.132   5.425  -2.382
    1NGb    H2K   91   4.182   5.627  -2.266
    1NGb    H2M   92   4.257   5.535  -2.138
    1NGb    H2N   93   4.137   5.641  -2.089
    1NGb    H2O   94   3.844   5.453  -2.239
    1NGb    H2P   95   3.940   5.588  -2.306
    1NGb    H2Q   96   3.899   5.591  -2.137
    1NGb    H2R   97   3.963   5.320  -2.076
    1NGb    H2S   98   4.013   5.454  -1.971
    1NGb    H2T   99   4.088   5.196  -1.652
    1NGb    H2U  100   4.106   5.176  -1.408
    1NGb    C00    1   5.104   5.283  -1.212
    1NGb    N01    2   5.074   5.155  -1.272
    1NGb    C02    3   4.971   5.092  -1.190
    1NGb    C03    4   5.028   5.039  -1.056
    1NGb    O04    5   4.925   4.957  -1.003
    1NGb    C05    6   4.948   4.905  -0.878
    1NGb    C06    7   5.071   4.922  -0.812
    1NGb    C07    8   5.092   4.861  -0.688
    1NGb    C08    9   4.991   4.783  -0.630
    1NGb    C09   10   5.013   4.722  -0.497
    1NGb    C0A   11   5.100   4.780  -0.403
    1NGb    C0B   12   5.119   4.723  -0.276
    1NGb    C0C   13   5.055   4.603  -0.243
    1NGb    DUM   14   5.077   4.539  -0.123
    1NGb    C0E   15   4.968   4.544  -0.336
    1NGb    C0F   16   4.946   4.605  -0.460
    1NGb    C0G   17   4.869   4.765  -0.695
    1NGb    C0H   18   4.848   4.828  -0.818
    1NGb    C0I   19   5.062   5.162  -1.406
    1NGb    C0J   20   5.179   5.167  -1.490
    1NGb    C0K   21   5.164   5.195  -1.623
    1NGb    C0M   22   5.042   5.205  -1.683
    1NGb    C0N   23   5.033   5.216  -1.828
    1NGb    C0O   24   4.935   5.289  -1.882
    1NGb    C0P   25   4.901   5.304  -2.015
    1NGb    C0Q   26   4.987   5.261  -2.108
    1NGb    C0R   27   4.963   5.280  -2.238
    1NGb    C0S   28   5.058   5.234  -2.335
    1NGb    C0T   29   5.043   5.236  -2.465
    1NGb    C0U   30   5.137   5.186  -2.553
    1NGb    C0V   31   5.141   5.191  -2.704
    1NGb    C0W   32   5.045   5.245  -2.777
    1NGb    C0X   33   4.932   5.318  -2.725
    1NGb    N0Y   34   4.824   5.364  -2.707
    1NGb    C0Z   35   5.078   5.224  -2.906
    1NGb    C10   36   5.025   5.272  -3.025
    1NGb    C11   37   4.904   5.339  -3.029
    1NGb    N12   38   4.801   5.402  -3.041
    1NGb    C13   39   5.077   5.219  -3.148
    1NGb    N14   40   5.131   5.197  -3.254
    1NGb    O15   41   5.195   5.154  -2.915
    1NGb    C16   42   5.248   5.122  -2.782
    1NGb    C17   43   5.244   4.974  -2.754
    1NGb    C18   44   5.146   4.898  -2.809
    1NGb    C19   45   5.145   4.767  -2.787
    1NGb    C1A   46   5.241   4.706  -2.714
    1NGb    C1B   47   5.340   4.781  -2.655
    1NGb    C1C   48   5.338   4.919  -2.670
    1NGb    C1D   49   5.380   5.200  -2.770
    1NGb    F1E   50   5.354   5.328  -2.823
    1NGb    F1F   51   5.426   5.218  -2.642
    1NGb    F1G   52   5.468   5.142  -2.839
    1NGb    C1H   53   4.848   5.374  -2.289
    1NGb    C1I   54   4.804   5.466  -2.181
    1NGb    C1J   55   4.901   5.575  -2.172
    1NGb    C1K   56   4.665   5.525  -2.220
    1NGb    C1M   57   4.783   5.392  -2.056
    1NGb    C1N   58   4.925   5.190  -1.607
    1NGb    C1O   59   4.937   5.177  -1.465
    1NGb    H1P   60   5.193   5.324  -1.259
    1NGb    H1Q   61   5.115   5.285  -1.104
    1NGb    H1R   62   5.020   5.352  -1.231
    1NGb    H1S   63   4.929   5.005  -1.242
    1NGb    H1T   64   4.886   5.158  -1.170
    1NGb    H1U   65   5.051   5.117  -0.985
    1NGb    H1V   66   5.115   4.977  -1.076
    1NGb    H1W   67   5.154   4.979  -0.852
    1NGb    H1X   68   5.187   4.873  -0.641
    1NGb    H1Y   69   5.151   4.872  -0.425
    1NGb    H1Z   70   5.187   4.770  -0.207
    1NGb    DUM   71   5.119   4.593  -0.058
    1NGb    H21   72   4.916   4.454  -0.311
    1NGb    H22   73   4.879   4.555  -0.529
    1NGb    H23   74   4.787   4.710  -0.653
    1NGb    H24   75   4.754   4.818  -0.872
    1NGb    H25   76   5.276   5.159  -1.443
    1NGb    H26   77   5.253   5.198  -1.686
    1NGb    H27   78   5.101   5.154  -1.886
    1NGb    H28   79   4.870   5.340  -1.815
    1NGb    H29   80   5.080   5.215  -2.086
    1NGb    H2A   81   5.149   5.191  -2.294
    1NGb    H2B   82   4.952   5.283  -2.496
    1NGb    H2C   83   5.212   5.132  -2.497
    1NGb    H2D   84   5.071   4.939  -2.875
    1NGb    H2E   85   5.069   4.701  -2.827
    1NGb    H2F   86   5.238   4.599  -2.697
    1NGb    H2G   87   5.418   4.741  -2.593
    1NGb    H2H   88   5.408   4.992  -2.635
    1NGb    H2I   89   4.757   5.318  -2.309
    1NGb    H2J   90   4.872   5.425  -2.382
    1NGb    H2K   91   4.922   5.627  -2.266
    1NGb    H2M   92   4.997   5.535  -2.138
    1NGb    H2N   93   4.877   5.641  -2.089
    1NGb    H2O   94   4.584   5.453  -2.239
    1NGb    H2P   95   4.680   5.588  -2.306
    1NGb    H2Q   96   4.639   5.591  -2.137
    1NGb    H2R   97   4.703   5.320  -2.076
    1NGb    H2S   98   4.753   5.454  -1.971
    1NGb    H2T   99   4.828   5.196  -1.652
    1NGb    H2U  100   4.846   5.176  -1.408
    1NGb    C00    1  -0.075   6.023  -1.212
    1NGb    N01    2  -0.105   5.895  -1.272
    1NGb    C02    3  -0.208   5.832  -1.190
    1NGb    C03    4  -0.151   5.779  -1.056
    1NGb    O04    5  -0.254   5.697  -1.003
    1NGb    C05    6  -0.231   5.645  -0.878
    1NGb    C06    7  -0.108   5.662  -0.812
    1NGb    C07    8  -0.087   5.601  -0.688
    1NGb    C08    9  -0.188   5.523  -0.630
    1NGb    C09   10  -0.166   5.462  -0.497
    1NGb    C0A   11  -0.079   5.520  -0.403
    1NGb    C0B   12  -0.060   5.463  -0.276
    1NGb    C0C   13  -0.124   5.343  -0.243
    1NGb    DUM   14  -0.102   5.279  -0.123
    1NGb    C0E   15  -0.211   5.284  -0.336
    1NGb    C0F   16  -0.233   5.345  -0.460
    1NGb    C0G   17  -0.310   5.505  -0.695
    1NGb    C0H   18  -0.331   5.568  -0.818
    1NGb    C0I   19  -0.117   5.902  -1.406
    1NGb    C0J   20   0.000   5.907  -1.490
    1NGb    C0K   21  -0.015   5.935  -1.623
    1NGb    C0M   22  -0.137   5.945  -1.683
    1NGb    C0N   23  -0.146   5.956  -1.828
    1NGb    C0O   24  -0.244   6.029  -1.882
    1NGb    C0P   25  -0.278   6.044  -2.015
    1NGb    C0Q   26  -0.192   6.001  -2.108
    1NGb    C0R   27  -0.216   6.020  -2.238
    1NGb    C0S   28  -0.121   5.974  -2.335
    1NGb    C0T   29  -0.136   5.976  -2.465
    1NGb    C0U   30  -0.042   5.926  -2.553
    1NGb    C0V   31  -0.038   5.931  -2.704
    1NGb    C0W   32  -0.134   5.985  -2.777
    1NGb    C0X   33  -0.247   6.058  -2.725
    1NGb    N0Y   34  -0.355   6.104  -2.707
    1NGb    C0Z   35  -0.101   5.964  -2.906
    1NGb    C10   36  -0.154   6.012  -3.025
    1NGb    C11   37  -0.275   6.079  -3.029
    1NGb    N12   38  -0.378   6.142  -3.041
    1NGb    C13   39  -0.102   5.959  -3.148
    1NGb    N14   40  -0.048   5.937  -3.254
    1NGb    O15   41   0.016   5.894  -2.915
    1NGb    C16   42   0.069   5.862  -2.782
    1NGb    C17   43   0.065   5.714  -2.754
    1NGb    C18   44  -0.033   5.638  -2.809
    1NGb    C19   45  -0.034   5.507  -2.787
    1NGb    C1A   46   0.062   5.446  -2.714
    1NGb    C1B   47   0.161   5.521  -2.655
    1NGb    C1C   48   0.159   5.659  -2.670
    1NGb    C1D   49   0.201   5.940  -2.770
    1NGb    F1E   50   0.175   6.068  -2.823
    1NGb    F1F   51   0.247   5.958  -2.642
    1NGb    F1G   52   0.289   5.882  -2.839
    1NGb    C1H   53  -0.331   6.114  -2.289
    1NGb    C1I   54  -0.375   6.206  -2.181
    1NGb    C1J   55  -0.278   6.315  -2.172
    1NGb    C1K   56  -0.514   6.265  -2.220
    1NGb    C1M   57  -0.396   6.132  -2.056
    1NGb    C1N   58  -0.254   5.930  -1.607
    1NGb    C1O   59  -0.242   5.917  -1.465
    1NGb    H1P   60   0.014   6.064  -1.259
    1NGb    H1Q   61  -0.064   6.025  -1.104
    1NGb    H1R   62  -0.159   6.092  -1.231
    1NGb    H1S   63  -0.250   5.745  -1.242
    1NGb    H1T   64  -0.293   5.898  -1.170
    1NGb    H1U   65  -0.128   5.857  -0.985
    1NGb    H1V   66  -0.064   5.717  -1.076
    1NGb    H1W   67  -0.025   5.719  -0.852
    1NGb    H1X   68   0.008   5.613  -0.641
    1NGb    H1Y   69  -0.028   5.612  -0.425
    1NGb    H1Z   70   0.008   5.510  -0.207
    1NGb    DUM   71  -0.060   5.333  -0.058
    1NGb    H21   72  -0.263   5.194  -0.311
    1NGb    H22   73  -0.300   5.295  -0.529
    1NGb    H23   74  -0.392   5.450  -0.653
    1NGb    H24   75  -0.425   5.558  -0.872
    1NGb    H25   76   0.097   5.899  -1.443
    1NGb    H26   77   0.074   5.938  -1.686
    1NGb    H27   78  -0.078   5.894  -1.886
    1NGb    H28   79  -0.309   6.080  -1.815
    1NGb    H29   80  -0.099   5.955  -2.086
    1NGb    H2A   81  -0.030   5.931  -2.294
    1NGb    H2B   82  -0.227   6.023  -2.496
    1NGb    H2C   83   0.033   5.872  -2.497
    1NGb    H2D   84  -0.108   5.679  -2.875
    1NGb    H2E   85  -0.110   5.441  -2.827
    1NGb    H2F   86   0.059   5.339  -2.697
    1NGb    H2G   87   0.239   5.481  -2.593
    1NGb    H2H   88   0.229   5.732  -2.635
    1NGb    H2I   89  -0.422   6.058  -2.309
    1NGb    H2J   90  -0.307   6.165  -2.382
    1NGb    H2K   91  -0.257   6.367  -2.266
    1NGb    H2M   92  -0.182   6.275  -2.138
    1NGb    H2N   93  -0.302   6.381  -2.089
    1NGb    H2O   94  -0.595   6.193  -2.239
    1NGb    H2P   95  -0.499   6.328  -2.306
    1NGb    H2Q   96  -0.540   6.331  -2.137
    1NGb    H2R   97  -0.476   6.060  -2.076
    1NGb    H2S   98  -0.426   6.194  -1.971
    1NGb    H2T   99  -0.351   5.936  -1.652
    1NGb    H2U  100  -0.333   5.916  -1.408
    1NGb    C00    1   0.665   6.023  -1.212
    1NGb    N01    2   0.635   5.895  -1.272
    1NGb    C02    3   0.532   5.832  -1.190
    1NGb    C03    4   0.589   5.779  -1.056
    1NGb    O04    5   0.486   5.697  -1.003
    1NGb    C05    6   0.509   5.645  -0.878
    1NGb    C06    7   0.632   5.662  -0.812
    1NGb    C07    8   0.653   5.601  -0.688
    1NGb    C08    9   0.552   5.523  -0.630
    1NGb    C09   10   0.574   5.462  -0.497
    1NGb    C0A   11   0.661   5.520  -0.403
    1NGb    C0B   12   0.680   5.463  -0.276
    1NGb    C0C   13   0.616   5.343  -0.243
    1NGb    DUM   14   0.638   5.279  -0.123
    1NGb    C0E   15   0.529   5.284  -0.336
    1NGb    C0F   16   0.507   5.345  -0.460
    1NGb    C0G   17   0.430   5.505  -0.695
    1NGb    C0H   18   0.409   5.568  -0.818
    1NGb    C0I   19   0.623   5.902  -1.406
    1NGb    C0J   20   0.740   5.907  -1.490
    1NGb    C0K   21   0.725   5.935  -1.623
    1NGb    C0M   22   0.603   5.945  -1.683
    1NGb    C0N   23   0.594   5.956  -1.828
    1NGb    C0O   24   0.496   6.029  -1.882
    1NGb    C0P   25   0.462   6.044  -2.015
    1NGb    C0Q   26   0.548   6.001  -2.108
    1NGb    C0R   27   0.524   6.020  -2.238
    1NGb    C0S   28   0.619   5.974  -2.335
    1NGb    C0T   29   0.604   5.976  -2.465
    1NGb    C0U   30   0.698   5.926  -2.553
    1NGb    C0V   31   0.702   5.931  -2.704
    1NGb    C0W   32   0.606   5.985  -2.777
    1NGb    C0X   33   0.493   6.058  -2.725
    1NGb    N0Y   34   0.385   6.104  -2.707
    1NGb    C0Z   35   0.639   5.964  -2.906
    1NGb    C10   36   0.586   6.012  -3.025
    1NGb    C11   37   0.465   6.079  -3.029
    1NGb    N12   38   0.362   6.142  -3.041
    1NGb    C13   39   0.638   5.959  -3.148
    1NGb    N14   40   0.692   5.937  -3.254
    1NGb    O15   41   0.756   5.894  -2.915
    1NGb    C16   42   0.809   5.862  -2.782
    1NGb    C17   43   0.805   5.714  -2.754
    1NGb    C18   44   0.707   5.638  -2.809
    1NGb    C19   45   0.706   5.507  -2.787
    1NGb    C1A   46   0.802   5.446  -2.714
    1NGb    C1B   47   0.901   5.521  -2.655
    1NGb    C1C   48   0.899   5.659  -2.670
    1NGb    C1D   49   0.941   5.940  -2.770
    1NGb    F1E   50   0.915   6.068  -2.823
    1NGb    F1F   51   0.987   5.958  -2.642
    1NGb    F1G   52   1.029   5.882  -2.839
    1NGb    C1H   53   0.409   6.114  -2.289
    1NGb    C1I   54   0.365   6.206  -2.181
    1NGb    C1J   55   0.462   6.315  -2.172
    1NGb    C1K   56   0.226   6.265  -2.220
    1NGb    C1M   57   0.344   6.132  -2.056
    1NGb    C1N   58   0.486   5.930  -1.607
    1NGb    C1O   59   0.498   5.917  -1.465
    1NGb    H1P   60   0.754   6.064  -1.259
    1NGb    H1Q   61   0.676   6.025  -1.104
    1NGb    H1R   62   0.581   6.092  -1.231
    1NGb    H1S   63   0.490   5.745  -1.242
    1NGb    H1T   64   0.447   5.898  -1.170
    1NGb    H1U   65   0.612   5.857  -0.985
    1NGb    H1V   66   0.676   5.717  -1.076
    1NGb    H1W   67   0.715   5.719  -0.852
    1NGb    H1X   68   0.748   5.613  -0.641
    1NGb    H1Y   69   0.712   5.612  -0.425
    1NGb    H1Z   70   0.748   5.510  -0.207
    1NGb    DUM   71   0.680   5.333  -0.058
    1NGb    H21   72   0.477   5.194  -0.311
    1NGb    H22   73   0.440   5.295  -0.529
    1NGb    H23   74   0.348   5.450  -0.653
    1NGb    H24   75   0.315   5.558  -0.872
    1NGb    H25   76   0.837   5.899  -1.443
    1NGb    H26   77   0.814   5.938  -1.686
    1NGb    H27   78   0.662   5.894  -1.886
    1NGb    H28   79   0.431   6.080  -1.815
    1NGb    H29   80   0.641   5.955  -2.086
    1NGb    H2A   81   0.710   5.931  -2.294
    1NGb    H2B   82   0.513   6.023  -2.496
    1NGb    H2C   83   0.773   5.872  -2.497
    1NGb    H2D   84   0.632   5.679  -2.875
    1NGb    H2E   85   0.630   5.441  -2.827
    1NGb    H2F   86   0.799   5.339  -2.697
    1NGb    H2G   87   0.979   5.481  -2.593
    1NGb    H2H   88   0.969   5.732  -2.635
    1NGb    H2I   89   0.318   6.058  -2.309
    1NGb    H2J   90   0.433   6.165  -2.382
    1NGb    H2K   91   0.483   6.367  -2.266
    1NGb    H2M   92   0.558   6.275  -2.138
    1NGb    H2N   93   0.438   6.381  -2.089
    1NGb    H2O   94   0.145   6.193  -2.239
    1NGb    H2P   95   0.241   6.328  -2.306
    1NGb    H2Q   96   0.200   6.331  -2.137
    1NGb    H2R   97   0.264   6.060  -2.076
    1NGb    H2S   98   0.314   6.194  -1.971
    1NGb    H2T   99   0.389   5.936  -1.652
    1NGb    H2U  100   0.407   5.916  -1.408
    1NGb    C00    1   1.405   6.023  -1.212
    1NGb    N01    2   1.375   5.895  -1.272
    1NGb    C02    3   1.272   5.832  -1.190
    1NGb    C03    4   1.329   5.779  -1.056
    1NGb    O04    5   1.226   5.697  -1.003
    1NGb    C05    6   1.249   5.645  -0.878
    1NGb    C06    7   1.372   5.662  -0.812
    1NGb    C07    8   1.393   5.601  -0.688
    1NGb    C08    9   1.292   5.523  -0.630
    1NGb    C09   10   1.314   5.462  -0.497
    1NGb    C0A   11   1.401   5.520  -0.403
    1NGb    C0B   12   1.420   5.463  -0.276
    1NGb    C0C   13   1.356   5.343  -0.243
    1NGb    DUM   14   1.378   5.279  -0.123
    1NGb    C0E   15   1.269   5.284  -0.336
    1NGb    C0F   16   1.247   5.345  -0.460
    1NGb    C0G   17   1.170   5.505  -0.695
    1NGb    C0H   18   1.149   5.568  -0.818
    1NGb    C0I   19   1.363   5.902  -1.406
    1NGb    C0J   20   1.480   5.907  -1.490
    1NGb    C0K   21   1.465   5.935  -1.623
    1NGb    C0M   22   1.343   5.945  -1.683
    1NGb    C0N   23   1.334   5.956  -1.828
    1NGb    C0O   24   1.236   6.029  -1.882
    1NGb    C0P   25   1.202   6.044  -2.015
    1NGb    C0Q   26   1.288   6.001  -2.108
    1NGb    C0R   27   1.264   6.020  -2.238
    1NGb    C0S   28   1.359   5.974  -2.335
    1NGb    C0T   29   1.344   5.976  -2.465
    1NGb    C0U   30   1.438   5.926  -2.553
    1NGb    C0V   31   1.442   5.931  -2.704
    1NGb    C0W   32   1.346   5.985  -2.777
    1NGb    C0X   33   1.233   6.058  -2.725
    1NGb    N0Y   34   1.125   6.104  -2.707
    1NGb    C0Z   35   1.379   5.964  -2.906
    1NGb    C10   36   1.326   6.012  -3.025
    1NGb    C11   37   1.205   6.079  -3.029
    1NGb    N12   38   1.102   6.142  -3.041
    1NGb    C13   39   1.378   5.959  -3.148
    1NGb    N14   40   1.432   5.937  -3.254
    1NGb    O15   41   1.496   5.894  -2.915
    1NGb    C16   42   1.549   5.862  -2.782
    1NGb    C17   43   1.545   5.714  -2.754
    1NGb    C18   44   1.447   5.638  -2.809
    1NGb    C19   45   1.446   5.507  -2.787
    1NGb    C1A   46   1.542   5.446  -2.714
    1NGb    C1B   47   1.641   5.521  -2.655
    1NGb    C1C   48   1.639   5.659  -2.670
    1NGb    C1D   49   1.681   5.940  -2.770
    1NGb    F1E   50   1.655   6.068  -2.823
    1NGb    F1F   51   1.727   5.958  -2.642
    1NGb    F1G   52   1.769   5.882  -2.839
    1NGb    C1H   53   1.149   6.114  -2.289
    1NGb    C1I   54   1.105   6.206  -2.181
    1NGb    C1J   55   1.202   6.315  -2.172
    1NGb    C1K   56   0.966   6.265  -2.220
    1NGb    C1M   57   1.084   6.132  -2.056
    1NGb    C1N   58   1.226   5.930  -1.607
    1NGb    C1O   59   1.238   5.917  -1.465
    1NGb    H1P   60   1.494   6.064  -1.259
    1NGb    H1Q   61   1.416   6.025  -1.104
    1NGb    H1R   62   1.321   6.092  -1.231
    1NGb    H1S   63   1.230   5.745  -1.242
    1NGb    H1T   64   1.187   5.898  -1.170
    1NGb    H1U   65   1.352   5.857  -0.985
    1NGb    H1V   66   1.416   5.717  -1.076
    1NGb    H1W   67   1.455   5.719  -0.852
    1NGb    H1X   68   1.488   5.613  -0.641
    1NGb    H1Y   69   1.452   5.612  -0.425
    1NGb    H1Z   70   1.488   5.510  -0.207
    1NGb    DUM   71   1.420   5.333  -0.058
    1NGb    H21   72   1.217   5.194  -0.311
    1NGb    H22   73   1.180   5.295  -0.529
    1NGb    H23   74   1.088   5.450  -0.653
    1NGb    H24   75   1.055   5.558  -0.872
    1NGb    H25   76   1.577   5.899  -1.443
    1NGb    H26   77   1.554   5.938  -1.686
    1NGb    H27   78   1.402   5.894  -1.886
    1NGb    H28   79   1.171   6.080  -1.815
    1NGb    H29   80   1.381   5.955  -2.086
    1NGb    H2A   81   1.450   5.931  -2.294
    1NGb    H2B   82   1.253   6.023  -2.496
    1NGb    H2C   83   1.513   5.872  -2.497
    1NGb    H2D   84   1.372   5.679  -2.875
    1NGb    H2E   85   1.370   5.441  -2.827
    1NGb    H2F   86   1.539   5.339  -2.697
    1NGb    H2G   87   1.719   5.481  -2.593
    1NGb    H2H   88   1.709   5.732  -2.635
    1NGb    H2I   89   1.058   6.058  -2.309
    1NGb    H2J   90   1.173   6.165  -2.382
    1NGb    H2K   91   1.223   6.367  -2.266
    1NGb    H2M   92   1.298   6.275  -2.138
    1NGb    H2N   93   1.178   6.381  -2.089
    1NGb    H2O   94   0.885   6.193  -2.239
    1NGb    H2P   95   0.981   6.328  -2.306
    1NGb    H2Q   96   0.940   6.331  -2.137
    1NGb    H2R   97   1.004   6.060  -2.076
    1NGb    H2S   98   1.054   6.194  -1.971
    1NGb    H2T   99   1.129   5.936  -1.652
    1NGb    H2U  100   1.147   5.916  -1.408
    1NGb    C00    1   2.145   6.023  -1.212
    1NGb    N01    2   2.115   5.895  -1.272
    1NGb    C02    3   2.012   5.832  -1.190
    1NGb    C03    4   2.069   5.779  -1.056
    1NGb    O04    5   1.966   5.697  -1.003
    1NGb    C05    6   1.989   5.645  -0.878
    1NGb    C06    7   2.112   5.662  -0.812
    1NGb    C07    8   2.133   5.601  -0.688
    1NGb    C08    9   2.032   5.523  -0.630
    1NGb    C09   10   2.054   5.462  -0.497
    1NGb    C0A   11   2.141   5.520  -0.403
    1NGb    C0B   12   2.160   5.463  -0.276
    1NGb    C0C   13   2.096   5.343  -0.243
    1NGb    DUM   14   2.118   5.279  -0.123
    1NGb    C0E   15   2.009   5.284  -0.336
    1NGb    C0F   16   1.987   5.345  -0.460
    1NGb    C0G   17   1.910   5.505  -0.695
    1NGb    C0H   18   1.889   5.568  -0.818
    1NGb    C0I   19   2.103   5.902  -1.406
    1NGb    C0J   20   2.220   5.907  -1.490
    1NGb    C0K   21   2.205   5.935  -1.623
    1NGb    C0M   22   2.083   5.945  -1.683
    1NGb    C0N   23   2.074   5.956  -1.828
    1NGb    C0O   24   1.976   6.029  -1.882
    1NGb    C0P   25   1.942   6.044  -2.015
    1NGb    C0Q   26   2.028   6.001  -2.108
    1NGb    C0R   27   2.004   6.020  -2.238
    1NGb    C0S   28   2.099   5.974  -2.335
    1NGb    C0T   29   2.084   5.976  -2.465
    1NGb    C0U   30   2.178   5.926  -2.553
    1NGb    C0V   31   2.182   5.931  -2.704
    1NGb    C0W   32   2.086   5.985  -2.777
    1NGb    C0X   33   1.973   6.058  -2.725
    1NGb    N0Y   34   1.865   6.104  -2.707
    1NGb    C0Z   35   2.119   5.964  -2.906
    1NGb    C10   36   2.066   6.012  -3.025
    1NGb    C11   37   1.945   6.079  -3.029
    1NGb    N12   38   1.842   6.142  -3.041
    1NGb    C13   39   2.118   5.959  -3.148
    1NGb    N14   40   2.172   5.937  -3.254
    1NGb    O15   41   2.236   5.894  -2.915
    1NGb    C16   42   2.289   5.862  -2.782
    1NGb    C17   43   2.285   5.714  -2.754
    1NGb    C18   44   2.187   5.638  -2.809
    1NGb    C19   45   2.186   5.507  -2.787
    1NGb    C1A   46   2.282   5.446  -2.714
    1NGb    C1B   47   2.381   5.521  -2.655
    1NGb    C1C   48   2.379   5.659  -2.670
    1NGb    C1D   49   2.421   5.940  -2.770
    1NGb    F1E   50   2.395   6.068  -2.823
    1NGb    F1F   51   2.467   5.958  -2.642
    1NGb    F1G   52   2.509   5.882  -2.839
    1NGb    C1H   53   1.889   6.114  -2.289
    1NGb    C1I   54   1.845   6.206  -2.181
    1NGb    C1J   55   1.942   6.315  -2.172
    1NGb    C1K   56   1.706   6.265  -2.220
    1NGb    C1M   57   1.824   6.132  -2.056
    1NGb    C1N   58   1.966   5.930  -1.607
    1NGb    C1O   59   1.978   5.917  -1.465
    1NGb    H1P   60   2.234   6.064  -1.259
    1NGb    H1Q   61   2.156   6.025  -1.104
    1NGb    H1R   62   2.061   6.092  -1.231
    1NGb    H1S   63   1.970   5.745  -1.242
    1NGb    H1T   64   1.927   5.898  -1.170
    1NGb    H1U   65   2.092   5.857  -0.985
    1NGb    H1V   66   2.156   5.717  -1.076
    1NGb    H1W   67   2.195   5.719  -0.852
    1NGb    H1X   68   2.228   5.613  -0.641
    1NGb    H1Y   69   2.192   5.612  -0.425
    1NGb    H1Z   70   2.228   5.510  -0.207
    1NGb    DUM   71   2.160   5.333  -0.058
    1NGb    H21   72   1.957   5.194  -0.311
    1NGb    H22   73   1.920   5.295  -0.529
    1NGb    H23   74   1.828   5.450  -0.653
    1NGb    H24   75   1.795   5.558  -0.872
    1NGb    H25   76   2.317   5.899  -1.443
    1NGb    H26   77   2.294   5.938  -1.686
    1NGb    H27   78   2.142   5.894  -1.886
    1NGb    H28   79   1.911   6.080  -1.815
    1NGb    H29   80   2.121   5.955  -2.086
    1NGb    H2A   81   2.190   5.931  -2.294
    1NGb    H2B   82   1.993   6.023  -2.496
    1NGb    H2C   83   2.253   5.872  -2.497
    1NGb    H2D   84   2.112   5.679  -2.875
    1NGb    H2E   85   2.110   5.441  -2.827
    1NGb    H2F   86   2.279   5.339  -2.697
    1NGb    H2G   87   2.459   5.481  -2.593
    1NGb    H2H   88   2.449   5.732  -2.635
    1NGb    H2I   89   1.798   6.058  -2.309
    1NGb    H2J   90   1.913   6.165  -2.382
    1NGb    H2K   91   1.963   6.367  -2.266
    1NGb    H2M   92   2.038   6.275  -2.138
    1NGb    H2N   93   1.918   6.381  -2.089
    1NGb    H2O   94   1.625   6.193  -2.239
    1NGb    H2P   95   1.721   6.328  -2.306
    1NGb    H2Q   96   1.680   6.331  -2.137
    1NGb    H2R   97   1.744   6.060  -2.076
    1NGb    H2S   98   1.794   6.194  -1.971
    1NGb    H2T   99   1.869   5.936  -1.652
    1NGb    H2U  100   1.887   5.916  -1.408
    1NGb    C00    1   2.884   6.023  -1.212
    1NGb    N01    2   2.854   5.895  -1.272
    1NGb    C02    3   2.751   5.832  -1.190
    1NGb    C03    4   2.808   5.779  -1.056
    1NGb    O04    5   2.705   5.697  -1.003
    1NGb    C05    6   2.728   5.645  -0.878
    1NGb    C06    7   2.851   5.662  -0.812
    1NGb    C07    8   2.872   5.601  -0.688
    1NGb    C08    9   2.771   5.523  -0.630
    1NGb    C09   10   2.793   5.462  -0.497
    1NGb    C0A   11   2.880   5.520  -0.403
    1NGb    C0B   12   2.899   5.463  -0.276
    1NGb    C0C   13   2.835   5.343  -0.243
    1NGb    DUM   14   2.857   5.279  -0.123
    1NGb    C0E   15   2.748   5.284  -0.336
    1NGb    C0F   16   2.726   5.345  -0.460
    1NGb    C0G   17   2.649   5.505  -0.695
    1NGb    C0H   18   2.628   5.568  -0.818
    1NGb    C0I   19   2.842   5.902  -1.406
    1NGb    C0J   20   2.959   5.907  -1.490
    1NGb    C0K   21   2.944   5.935  -1.623
    1NGb    C0M   22   2.822   5.945  -1.683
    1NGb    C0N   23   2.813   5.956  -1.828
    1NGb    C0O   24   2.715   6.029  -1.882
    1NGb    C0P   25   2.681   6.044  -2.015
    1NGb    C0Q   26   2.767   6.001  -2.108
    1NGb    C0R   27   2.743   6.020  -2.238
    1NGb    C0S   28   2.838   5.974  -2.335
    1NGb    C0T   29   2.823   5.976  -2.465
    1NGb    C0U   30   2.917   5.926  -2.553
    1NGb    C0V   31   2.921   5.931  -2.704
    1NGb    C0W   32   2.825   5.985  -2.777
    1NGb    C0X   33   2.712   6.058  -2.725
    1NGb    N0Y   34   2.604   6.104  -2.707
    1NGb    C0Z   35   2.858   5.964  -2.906
    1NGb    C10   36   2.805   6.012  -3.025
    1NGb    C11   37   2.684   6.079  -3.029
    1NGb    N12   38   2.581   6.142  -3.041
    1NGb    C13   39   2.857   5.959  -3.148
    1NGb    N14   40   2.911   5.937  -3.254
    1NGb    O15   41   2.975   5.894  -2.915
    1NGb    C16   42   3.028   5.862  -2.782
    1NGb    C17   43   3.024   5.714  -2.754
    1NGb    C18   44   2.926   5.638  -2.809
    1NGb    C19   45   2.925   5.507  -2.787
    1NGb    C1A   46   3.021   5.446  -2.714
    1NGb    C1B   47   3.120   5.521  -2.655
    1NGb    C1C   48   3.118   5.659  -2.670
    1NGb    C1D   49   3.160   5.940  -2.770
    1NGb    F1E   50   3.134   6.068  -2.823
    1NGb    F1F   51   3.206   5.958  -2.642
    1NGb    F1G   52   3.248   5.882  -2.839
    1NGb    C1H   53   2.628   6.114  -2.289
    1NGb    C1I   54   2.584   6.206  -2.181
    1NGb    C1J   55   2.681   6.315  -2.172
    1NGb    C1K   56   2.445   6.265  -2.220
    1NGb    C1M   57   2.563   6.132  -2.056
    1NGb    C1N   58   2.705   5.930  -1.607
    1NGb    C1O   59   2.717   5.917  -1.465
    1NGb    H1P   60   2.973   6.064  -1.259
    1NGb    H1Q   61   2.895   6.025  -1.104
    1NGb    H1R   62   2.800   6.092  -1.231
    1NGb    H1S   63   2.709   5.745  -1.242
    1NGb    H1T   64   2.666   5.898  -1.170
    1NGb    H1U   65   2.831   5.857  -0.985
    1NGb    H1V   66   2.895   5.717  -1.076
    1NGb    H1W   67   2.934   5.719  -0.852
    1NGb    H1X   68   2.967   5.613  -0.641
    1NGb    H1Y   69   2.931   5.612  -0.425
    1NGb    H1Z   70   2.967   5.510  -0.207
    1NGb    DUM   71   2.899   5.333  -0.058
    1NGb    H21   72   2.696   5.194  -0.311
    1NGb    H22   73   2.659   5.295  -0.529
    1NGb    H23   74   2.567   5.450  -0.653
    1NGb    H24   75   2.534   5.558  -0.872
    1NGb    H25   76   3.056   5.899  -1.443
    1NGb    H26   77   3.033   5.938  -1.686
    1NGb    H27   78   2.881   5.894  -1.886
    1NGb    H28   79   2.650   6.080  -1.815
    1NGb    H29   80   2.860   5.955  -2.086
    1NGb    H2A   81   2.929   5.931  -2.294
    1NGb    H2B   82   2.732   6.023  -2.496
    1NGb    H2C   83   2.992   5.872  -2.497
    1NGb    H2D   84   2.851   5.679  -2.875
    1NGb    H2E   85   2.849   5.441  -2.827
    1NGb    H2F   86   3.018   5.339  -2.697
    1NGb    H2G   87   3.198   5.481  -2.593
    1NGb    H2H   88   3.188   5.732  -2.635
    1NGb    H2I   89   2.537   6.058  -2.309
    1NGb    H2J   90   2.652   6.165  -2.382
    1NGb    H2K   91   2.702   6.367  -2.266
    1NGb    H2M   92   2.777   6.275  -2.138
    1NGb    H2N   93   2.657   6.381  -2.089
    1NGb    H2O   94   2.364   6.193  -2.239
    1NGb    H2P   95   2.460   6.328  -2.306
    1NGb    H2Q   96   2.419   6.331  -2.137
    1NGb    H2R   97   2.483   6.060  -2.076
    1NGb    H2S   98   2.533   6.194  -1.971
    1NGb    H2T   99   2.608   5.936  -1.652
    1NGb    H2U  100   2.626   5.916  -1.408
    1NGb    C00    1   3.624   6.023  -1.212
    1NGb    N01    2   3.594   5.895  -1.272
    1NGb    C02    3   3.491   5.832  -1.190
    1NGb    C03    4   3.548   5.779  -1.056
    1NGb    O04    5   3.445   5.697  -1.003
    1NGb    C05    6   3.468   5.645  -0.878
    1NGb    C06    7   3.591   5.662  -0.812
    1NGb    C07    8   3.612   5.601  -0.688
    1NGb    C08    9   3.511   5.523  -0.630
    1NGb    C09   10   3.533   5.462  -0.497
    1NGb    C0A   11   3.620   5.520  -0.403
    1NGb    C0B   12   3.639   5.463  -0.276
    1NGb    C0C   13   3.575   5.343  -0.243
    1NGb    DUM   14   3.597   5.279  -0.123
    1NGb    C0E   15   3.488   5.284  -0.336
    1NGb    C0F   16   3.466   5.345  -0.460
    1NGb    C0G   17   3.389   5.505  -0.695
    1NGb    C0H   18   3.368   5.568  -0.818
    1NGb    C0I   19   3.582   5.902  -1.406
    1NGb    C0J   20   3.699   5.907  -1.490
    1NGb    C0K   21   3.684   5.935  -1.623
    1NGb    C0M   22   3.562   5.945  -1.683
    1NGb    C0N   23   3.553   5.956  -1.828
    1NGb    C0O   24   3.455   6.029  -1.882
    1NGb    C0P   25   3.421   6.044  -2.015
    1NGb    C0Q   26   3.507   6.001  -2.108
    1NGb    C0R   27   3.483   6.020  -2.238
    1NGb    C0S   28   3.578   5.974  -2.335
    1NGb    C0T   29   3.563   5.976  -2.465
    1NGb    C0U   30   3.657   5.926  -2.553
    1NGb    C0V   31   3.661   5.931  -2.704
    1NGb    C0W   32   3.565   5.985  -2.777
    1NGb    C0X   33   3.452   6.058  -2.725
    1NGb    N0Y   34   3.344   6.104  -2.707
    1NGb    C0Z   35   3.598   5.964  -2.906
    1NGb    C10   36   3.545   6.012  -3.025
    1NGb    C11   37   3.424   6.079  -3.029
    1NGb    N12   38   3.321   6.142  -3.041
    1NGb    C13   39   3.597   5.959  -3.148
    1NGb    N14   40   3.651   5.937  -3.254
    1NGb    O15   41   3.715   5.894  -2.915
    1NGb    C16   42   3.768   5.862  -2.782
    1NGb    C17   43   3.764   5.714  -2.754
    1NGb    C18   44   3.666   5.638  -2.809
    1NGb    C19   45   3.665   5.507  -2.787
    1NGb    C1A   46   3.761   5.446  -2.714
    1NGb    C1B   47   3.860   5.521  -2.655
    1NGb    C1C   48   3.858   5.659  -2.670
    1NGb    C1D   49   3.900   5.940  -2.770
    1NGb    F1E   50   3.874   6.068  -2.823
    1NGb    F1F   51   3.946   5.958  -2.642
    1NGb    F1G   52   3.988   5.882  -2.839
    1NGb    C1H   53   3.368   6.114  -2.289
    1NGb    C1I   54   3.324   6.206  -2.181
    1NGb    C1J   55   3.421   6.315  -2.172
    1NGb    C1K   56   3.185   6.265  -2.220
    1NGb    C1M   57   3.303   6.132  -2.056
    1NGb    C1N   58   3.445   5.930  -1.607
    1NGb    C1O   59   3.457   5.917  -1.465
    1NGb    H1P   60   3.713   6.064  -1.259
    1NGb    H1Q   61   3.635   6.025  -1.104
    1NGb    H1R   62   3.540   6.092  -1.231
    1NGb    H1S   63   3.449   5.745  -1.242
    1NGb    H1T   64   3.406   5.898  -1.170
    1NGb    H1U   65   3.571   5.857  -0.985
    1NGb    H1V   66   3.635   5.717  -1.076
    1NGb    H1W   67   3.674   5.719  -0.852
    1NGb    H1X   68   3.707   5.613  -0.641
    1NGb    H1Y   69   3.671   5.612  -0.425
    1NGb    H1Z   70   3.707   5.510  -0.207
    1NGb    DUM   71   3.639   5.333  -0.058
    1NGb    H21   72   3.436   5.194  -0.311
    1NGb    H22   73   3.399   5.295  -0.529
    1NGb    H23   74   3.307   5.450  -0.653
    1NGb    H24   75   3.274   5.558  -0.872
    1NGb    H25   76   3.796   5.899  -1.443
    1NGb    H26   77   3.773   5.938  -1.686
    1NGb    H27   78   3.621   5.894  -1.886
    1NGb    H28   79   3.390   6.080  -1.815
    1NGb    H29   80   3.600   5.955  -2.086
    1NGb    H2A   81   3.669   5.931  -2.294
    1NGb    H2B   82   3.472   6.023  -2.496
    1NGb    H2C   83   3.732   5.872  -2.497
    1NGb    H2D   84   3.591   5.679  -2.875
    1NGb    H2E   85   3.589   5.441  -2.827
    1NGb    H2F   86   3.758   5.339  -2.697
    1NGb    H2G   87   3.938   5.481  -2.593
    1NGb    H2H   88   3.928   5.732  -2.635
    1NGb    H2I   89   3.277   6.058  -2.309
    1NGb    H2J   90   3.392   6.165  -2.382
    1NGb    H2K   91   3.442   6.367  -2.266
    1NGb    H2M   92   3.517   6.275  -2.138
    1NGb    H2N   93   3.397   6.381  -2.089
    1NGb    H2O   94   3.104   6.193  -2.239
    1NGb    H2P   95   3.200   6.328  -2.306
    1NGb    H2Q   96   3.159   6.331  -2.137
    1NGb    H2R   97   3.223   6.060  -2.076
    1NGb    H2S   98   3.273   6.194  -1.971
    1NGb    H2T   99   3.348   5.936  -1.652
    1NGb    H2U  100   3.366   5.916  -1.408
    1NGb    C00    1   4.364   6.023  -1.212
    1NGb    N01    2   4.334   5.895  -1.272
    1NGb    C02    3   4.231   5.832  -1.190
    1NGb    C03    4   4.288   5.779  -1.056
    1NGb    O04    5   4.185   5.697  -1.003
    1NGb    C05    6   4.208   5.645  -0.878
    1NGb    C06    7   4.331   5.662  -0.812
    1NGb    C07    8   4.352   5.601  -0.688
    1NGb    C08    9   4.251   5.523  -0.630
    1NGb    C09   10   4.273   5.462  -0.497
    1NGb    C0A   11   4.360   5.520  -0.403
    1NGb    C0B   12   4.379   5.463  -0.276
    1NGb    C0C   13   4.315   5.343  -0.243
    1NGb    DUM   14   4.337   5.279  -0.123
    1NGb    C0E   15   4.228   5.284  -0.336
    1NGb    C0F   16   4.206   5.345  -0.460
    1NGb    C0G   17   4.129   5.505  -0.695
    1NGb    C0H   18   4.108   5.568  -0.818
    1NGb    C0I   19   4.322   5.902  -1.406
    1NGb    C0J   20   4.439   5.907  -1.490
    1NGb    C0K   21   4.424   5.935  -1.623
    1NGb    C0M   22   4.302   5.945  -1.683
    1NGb    C0N   23   4.293   5.956  -1.828
    1NGb    C0O   24   4.195   6.029  -1.882
    1NGb    C0P   25   4.161   6.044  -2.015
    1NGb    C0Q   26   4.247   6.001  -2.108
    1NGb    C0R   27   4.223   6.020  -2.238
    1NGb    C0S   28   4.318   5.974  -2.335
    1NGb    C0T   29   4.303   5.976  -2.465
    1NGb    C0U   30   4.397   5.926  -2.553
    1NGb    C0V   31   4.401   5.931  -2.704
    1NGb    C0W   32   4.305   5.985  -2.777
    1NGb    C0X   33   4.192   6.058  -2.725
    1NGb    N0Y   34   4.084   6.104  -2.707
    1NGb    C0Z   35   4.338   5.964  -2.906
    1NGb    C10   36   4.285   6.012  -3.025
    1NGb    C11   37   4.164   6.079  -3.029
    1NGb    N12   38   4.061   6.142  -3.041
    1NGb    C13   39   4.337   5.959  -3.148
    1NGb    N14   40   4.391   5.937  -3.254
    1NGb    O15   41   4.455   5.894  -2.915
    1NGb    C16   42   4.508   5.862  -2.782
    1NGb    C17   43   4.504   5.714  -2.754
    1NGb    C18   44   4.406   5.638  -2.809
    1NGb    C19   45   4.405   5.507  -2.787
    1NGb    C1A   46   4.501   5.446  -2.714
    1NGb    C1B   47   4.600   5.521  -2.655
    1NGb    C1C   48   4.598   5.659  -2.670
    1NGb    C1D   49   4.640   5.940  -2.770
    1NGb    F1E   50   4.614   6.068  -2.823
    1NGb    F1F   51   4.686   5.958  -2.642
    1NGb    F1G   52   4.728   5.882  -2.839
    1NGb    C1H   53   4.108   6.114  -2.289
    1NGb    C1I   54   4.064   6.206  -2.181
    1NGb    C1J   55   4.161   6.315  -2.172
    1NGb    C1K   56   3.925   6.265  -2.220
    1NGb    C1M   57   4.043   6.132  -2.056
    1NGb    C1N   58   4.185   5.930  -1.607
    1NGb    C1O   59   4.197   5.917  -1.465
    1NGb    H1P   60   4.453   6.064  -1.259
    1NGb    H1Q   61   4.375   6.025  -1.104
    1NGb    H1R   62   4.280   6.092  -1.231
    1NGb    H1S   63   4.189   5.745  -1.242
    1NGb    H1T   64   4.146   5.898  -1.170
    1NGb    H1U   65   4.311   5.857  -0.985
    1NGb    H1V   66   4.375   5.717  -1.076
    1NGb    H1W   67   4.414   5.719  -0.852
    1NGb    H1X   68   4.447   5.613  -0.641
    1NGb    H1Y   69   4.411   5.612  -0.425
    1NGb    H1Z   70   4.447   5.510  -0.207
    1NGb    DUM   71   4.379   5.333  -0.058
    1NGb    H21   72   4.176   5.194  -0.311
    1NGb    H22   73   4.139   5.295  -0.529
    1NGb    H23   74   4.047   5.450  -0.653
    1NGb    H24   75   4.014   5.558  -0.872
    1NGb    H25   76   4.536   5.899  -1.443
    1NGb    H26   77   4.513   5.938  -1.686
    1NGb    H27   78   4.361   5.894  -1.886
    1NGb    H28   79   4.130   6.080  -1.815
    1NGb    H29   80   4.340   5.955  -2.086
    1NGb    H2A   81   4.409   5.931  -2.294
    1NGb    H2B   82   4.212   6.023  -2.496
    1NGb    H2C   83   4.472   5.872  -2.497
    1NGb    H2D   84   4.331   5.679  -2.875
    1NGb    H2E   85   4.329   5.441  -2.827
    1NGb    H2F   86   4.498   5.339  -2.697
    1NGb    H2G   87   4.678   5.481  -2.593
    1NGb    H2H   88   4.668   5.732  -2.635
    1NGb    H2I   89   4.017   6.058  -2.309
    1NGb    H2J   90   4.132   6.165  -2.382
    1NGb    H2K   91   4.182   6.367  -2.266
    1NGb    H2M   92   4.257   6.275  -2.138
    1NGb    H2N   93   4.137   6.381  -2.089
    1NGb    H2O   94   3.844   6.193  -2.239
    1NGb    H2P   95   3.940   6.328  -2.306
    1NGb    H2Q   96   3.899   6.331  -2.137
    1NGb    H2R   97   3.963   6.060  -2.076
    1NGb    H2S   98   4.013   6.194  -1.971
    1NGb    H2T   99   4.088   5.936  -1.652
    1NGb    H2U  100   4.106   5.916  -1.408
    1NGb    C00    1   5.104   6.023  -1.212
    1NGb    N01    2   5.074   5.895  -1.272
    1NGb    C02    3   4.971   5.832  -1.190
    1NGb    C03    4   5.028   5.779  -1.056
    1NGb    O04    5   4.925   5.697  -1.003
    1NGb    C05    6   4.948   5.645  -0.878
    1NGb    C06    7   5.071   5.662  -0.812
    1NGb    C07    8   5.092   5.601  -0.688
    1NGb    C08    9   4.991   5.523  -0.630
    1NGb    C09   10   5.013   5.462  -0.497
    1NGb    C0A   11   5.100   5.520  -0.403
    1NGb    C0B   12   5.119   5.463  -0.276
    1NGb    C0C   13   5.055   5.343  -0.243
    1NGb    DUM   14   5.077   5.279  -0.123
    1NGb    C0E   15   4.968   5.284  -0.336
    1NGb    C0F   16   4.946   5.345  -0.460
    1NGb    C0G   17   4.869   5.505  -0.695
    1NGb    C0H   18   4.848   5.568  -0.818
    1NGb    C0I   19   5.062   5.902  -1.406
    1NGb    C0J   20   5.179   5.907  -1.490
    1NGb    C0K   21   5.164   5.935  -1.623
    1NGb    C0M   22   5.042   5.945  -1.683
    1NGb    C0N   23   5.033   5.956  -1.828
    1NGb    C0O   24   4.935   6.029  -1.882
    1NGb    C0P   25   4.901   6.044  -2.015
    1NGb    C0Q   26   4.987   6.001  -2.108
    1NGb    C0R   27   4.963   6.020  -2.238
    1NGb    C0S   28   5.058   5.974  -2.335
    1NGb    C0T   29   5.043   5.976  -2.465
    1NGb    C0U   30   5.137   5.926  -2.553
    1NGb    C0V   31   5.141   5.931  -2.704
    1NGb    C0W   32   5.045   5.985  -2.777
    1NGb    C0X   33   4.932   6.058  -2.725
    1NGb    N0Y   34   4.824   6.104  -2.707
    1NGb    C0Z   35   5.078   5.964  -2.906
    1NGb    C10   36   5.025   6.012  -3.025
    1NGb    C11   37   4.904   6.079  -3.029
    1NGb    N12   38   4.801   6.142  -3.041
    1NGb    C13   39   5.077   5.959  -3.148
    1NGb    N14   40   5.131   5.937  -3.254
    1NGb    O15   41   5.195   5.894  -2.915
    1NGb    C16   42   5.248   5.862  -2.782
    1NGb    C17   43   5.244   5.714  -2.754
    1NGb    C18   44   5.146   5.638  -2.809
    1NGb    C19   45   5.145   5.507  -2.787
    1NGb    C1A   46   5.241   5.446  -2.714
    1NGb    C1B   47   5.340   5.521  -2.655
    1NGb    C1C   48   5.338   5.659  -2.670
    1NGb    C1D   49   5.380   5.940  -2.770
    1NGb    F1E   50   5.354   6.068  -2.823
    1NGb    F1F   51   5.426   5.958  -2.642
    1NGb    F1G   52   5.468   5.882  -2.839
    1NGb    C1H   53   4.848   6.114  -2.289
    1NGb    C1I   54   4.804   6.206  -2.181
    1NGb    C1J   55   4.901   6.315  -2.172
    1NGb    C1K   56   4.665   6.265  -2.220
    1NGb    C1M   57   4.783   6.132  -2.056
    1NGb    C1N   58   4.925   5.930  -1.607
    1NGb    C1O   59   4.937   5.917  -1.465
    1NGb    H1P   60   5.193   6.064  -1.259
    1NGb    H1Q   61   5.115   6.025  -1.104
    1NGb    H1R   62   5.020   6.092  -1.231
    1NGb    H1S   63   4.929   5.745  -1.242
    1NGb    H1T   64   4.886   5.898  -1.170
    1NGb    H1U   65   5.051   5.857  -0.985
    1NGb    H1V   66   5.115   5.717  -1.076
    1NGb    H1W   67   5.154   5.719  -0.852
    1NGb    H1X   68   5.187   5.613  -0.641
    1NGb    H1Y   69   5.151   5.612  -0.425
    1NGb    H1Z   70   5.187   5.510  -0.207
    1NGb    DUM   71   5.119   5.333  -0.058
    1NGb    H21   72   4.916   5.194  -0.311
    1NGb    H22   73   4.879   5.295  -0.529
    1NGb    H23   74   4.787   5.450  -0.653
    1NGb    H24   75   4.754   5.558  -0.872
    1NGb    H25   76   5.276   5.899  -1.443
    1NGb    H26   77   5.253   5.938  -1.686
    1NGb    H27   78   5.101   5.894  -1.886
    1NGb    H28   79   4.870   6.080  -1.815
    1NGb    H29   80   5.080   5.955  -2.086
    1NGb    H2A   81   5.149   5.931  -2.294
    1NGb    H2B   82   4.952   6.023  -2.496
    1NGb    H2C   83   5.212   5.872  -2.497
    1NGb    H2D   84   5.071   5.679  -2.875
    1NGb    H2E   85   5.069   5.441  -2.827
    1NGb    H2F   86   5.238   5.339  -2.697
    1NGb    H2G   87   5.418   5.481  -2.593
    1NGb    H2H   88   5.408   5.732  -2.635
    1NGb    H2I   89   4.757   6.058  -2.309
    1NGb    H2J   90   4.872   6.165  -2.382
    1NGb    H2K   91   4.922   6.367  -2.266
    1NGb    H2M   92   4.997   6.275  -2.138
    1NGb    H2N   93   4.877   6.381  -2.089
    1NGb    H2O   94   4.584   6.193  -2.239
    1NGb    H2P   95   4.680   6.328  -2.306
    1NGb    H2Q   96   4.639   6.331  -2.137
    1NGb    H2R   97   4.703   6.060  -2.076
    1NGb    H2S   98   4.753   6.194  -1.971
    1NGb    H2T   99   4.828   5.936  -1.652
    1NGb    H2U  100   4.846   5.916  -1.408
5.91896 5.91896 4.73987 
