Generated slab structure
524
    1SiO    Si0    1   0.000   0.000   0.000
    1SiO    O0X    2  -0.093   0.093  -0.093
    1SiO    O03    3   0.093  -0.093  -0.093
    1SiO    O04    4   0.093   0.093   0.093
    1SiO    Si1    5   0.185   0.185   0.185
    1SiO    O05    6   0.278   0.093   0.278
    1SiO    O06    7   0.093   0.278   0.278
    1SiO    O08    8   0.278   0.278   0.093
    1SiO    Si2    9   0.370   0.370   0.000
    1SiO    O0A   10   0.278   0.462  -0.093
    1SiO    O0B   11   0.462   0.278  -0.093
    1SiO    O0C   12   0.462   0.462   0.093
    1SiO    Si3   13   0.555   0.555   0.185
    1SiO    O09   14   0.647   0.647   0.093
    1SiO    O0F   15   0.462   0.647   0.278
    1SiO    Si4   16   0.370   0.740   0.370
    1SiO    O0H   17   0.278   0.647   0.462
    1SiO    Si5   18   0.185   0.555   0.555
    1SiO    H0J   19   0.093   0.647   0.647
    1SiO    H0K   20   0.278   0.462   0.647
    1SiO    O10   21   0.093   0.462   0.462
    1SiO    O0N   22   0.647   0.462   0.278
    1SiO    Si6   23   0.740   0.370   0.370
    1SiO    O0P   24   0.647   0.278   0.462
    1SiO    Si7   25   0.555   0.185   0.555
    1SiO    H0R   26   0.647   0.093   0.647
    1SiO    H0S   27   0.462   0.278   0.647
    1SiO    O11   28   0.462   0.093   0.462
    1SiO    Si0   29   0.740   0.000   0.000
    1SiO    O0X   30   0.647   0.093  -0.093
    1SiO    O03   31   0.833  -0.093  -0.093
    1SiO    O04   32   0.833   0.093   0.093
    1SiO    Si1   33   0.925   0.185   0.185
    1SiO    O05   34   1.018   0.093   0.278
    1SiO    O06   35   0.833   0.278   0.278
    1SiO    O08   36   1.018   0.278   0.093
    1SiO    Si2   37   1.110   0.370   0.000
    1SiO    O0A   38   1.018   0.462  -0.093
    1SiO    O0B   39   1.202   0.278  -0.093
    1SiO    O0C   40   1.202   0.462   0.093
    1SiO    Si3   41   1.295   0.555   0.185
    1SiO    O09   42   1.387   0.647   0.093
    1SiO    O0F   43   1.202   0.647   0.278
    1SiO    Si4   44   1.110   0.740   0.370
    1SiO    O0H   45   1.018   0.647   0.462
    1SiO    Si5   46   0.925   0.555   0.555
    1SiO    H0J   47   0.833   0.647   0.647
    1SiO    H0K   48   1.018   0.462   0.647
    1SiO    O10   49   0.833   0.462   0.462
    1SiO    O0N   50   1.387   0.462   0.278
    1SiO    Si6   51   1.480   0.370   0.370
    1SiO    O0P   52   1.387   0.278   0.462
    1SiO    Si7   53   1.295   0.185   0.555
    1SiO    H0R   54   1.387   0.093   0.647
    1SiO    H0S   55   1.202   0.278   0.647
    1SiO    O11   56   1.202   0.093   0.462
    1SiO    Si0   57   0.000   0.740   0.000
    1SiO    O0X   58  -0.093   0.833  -0.093
    1SiO    O03   59   0.093   0.647  -0.093
    1SiO    O04   60   0.093   0.833   0.093
    1SiO    Si1   61   0.185   0.925   0.185
    1SiO    O05   62   0.278   0.833   0.278
    1SiO    O06   63   0.093   1.018   0.278
    1SiO    O08   64   0.278   1.018   0.093
    1SiO    Si2   65   0.370   1.110   0.000
    1SiO    O0A   66   0.278   1.202  -0.093
    1SiO    O0B   67   0.462   1.018  -0.093
    1SiO    O0C   68   0.462   1.202   0.093
    1SiO    Si3   69   0.555   1.295   0.185
    1SiO    O09   70   0.647   1.387   0.093
    1SiO    O0F   71   0.462   1.387   0.278
    1SiO    Si4   72   0.370   1.480   0.370
    1SiO    O0H   73   0.278   1.387   0.462
    1SiO    Si5   74   0.185   1.295   0.555
    1SiO    H0J   75   0.093   1.387   0.647
    1SiO    H0K   76   0.278   1.202   0.647
    1SiO    O10   77   0.093   1.202   0.462
    1SiO    O0N   78   0.647   1.202   0.278
    1SiO    Si6   79   0.740   1.110   0.370
    1SiO    O0P   80   0.647   1.018   0.462
    1SiO    Si7   81   0.555   0.925   0.555
    1SiO    H0R   82   0.647   0.833   0.647
    1SiO    H0S   83   0.462   1.018   0.647
    1SiO    O11   84   0.462   0.833   0.462
    1SiO    Si0   85   0.740   0.740   0.000
    1SiO    O0X   86   0.647   0.833  -0.093
    1SiO    O03   87   0.833   0.647  -0.093
    1SiO    O04   88   0.833   0.833   0.093
    1SiO    Si1   89   0.925   0.925   0.185
    1SiO    O05   90   1.018   0.833   0.278
    1SiO    O06   91   0.833   1.018   0.278
    1SiO    O08   92   1.018   1.018   0.093
    1SiO    Si2   93   1.110   1.110   0.000
    1SiO    O0A   94   1.018   1.202  -0.093
    1SiO    O0B   95   1.202   1.018  -0.093
    1SiO    O0C   96   1.202   1.202   0.093
    1SiO    Si3   97   1.295   1.295   0.185
    1SiO    O09   98   1.387   1.387   0.093
    1SiO    O0F   99   1.202   1.387   0.278
    1SiO    Si4  100   1.110   1.480   0.370
    1SiO    O0H  101   1.018   1.387   0.462
    1SiO    Si5  102   0.925   1.295   0.555
    1SiO    H0J  103   0.833   1.387   0.647
    1SiO    H0K  104   1.018   1.202   0.647
    1SiO    O10  105   0.833   1.202   0.462
    1SiO    O0N  106   1.387   1.202   0.278
    1SiO    Si6  107   1.480   1.110   0.370
    1SiO    O0P  108   1.387   1.018   0.462
    1SiO    Si7  109   1.295   0.925   0.555
    1SiO    H0R  110   1.387   0.833   0.647
    1SiO    H0S  111   1.202   1.018   0.647
    1SiO    O11  112   1.202   0.833   0.462
    1SiO    HS7  113   0.150  -0.036  -0.150
    1SiO    HS7  114   0.519   0.336  -0.150
    1SiO    HS7  115   0.221   0.405  -0.150
    1SiO    HS7  116   0.890  -0.036  -0.150
    1SiO    HS7  117   1.259   0.336  -0.150
    1SiO    HS7  118   0.961   0.405  -0.150
    1SiO    HS7  119   0.150   0.704  -0.150
    1SiO    HS7  120   0.519   1.076  -0.150
    1SiO    HS7  121   0.221   1.145  -0.150
    1SiO    HS7  122   0.890   0.704  -0.150
    1SiO    HS7  123   1.259   1.076  -0.150
    1SiO    HS7  124   0.961   1.145  -0.150
    1NGb    C00    1  -0.075   0.844  -1.212
    1NGb    N01    2  -0.105   0.716  -1.272
    1NGb    C02    3  -0.208   0.653  -1.190
    1NGb    C03    4  -0.151   0.600  -1.056
    1NGb    O04    5  -0.254   0.518  -1.003
    1NGb    C05    6  -0.231   0.466  -0.878
    1NGb    C06    7  -0.108   0.483  -0.812
    1NGb    C07    8  -0.087   0.422  -0.688
    1NGb    C08    9  -0.188   0.344  -0.630
    1NGb    C09   10  -0.166   0.283  -0.497
    1NGb    C0A   11  -0.079   0.341  -0.403
    1NGb    C0B   12  -0.060   0.284  -0.276
    1NGb    C0C   13  -0.124   0.164  -0.243
    1NGb    DUM   14  -0.102   0.100  -0.123
    1NGb    C0E   15  -0.211   0.105  -0.336
    1NGb    C0F   16  -0.233   0.166  -0.460
    1NGb    C0G   17  -0.310   0.326  -0.695
    1NGb    C0H   18  -0.331   0.389  -0.818
    1NGb    C0I   19  -0.117   0.723  -1.406
    1NGb    C0J   20   0.000   0.728  -1.490
    1NGb    C0K   21  -0.015   0.756  -1.623
    1NGb    C0M   22  -0.137   0.766  -1.683
    1NGb    C0N   23  -0.146   0.777  -1.828
    1NGb    C0O   24  -0.244   0.850  -1.882
    1NGb    C0P   25  -0.278   0.865  -2.015
    1NGb    C0Q   26  -0.192   0.822  -2.108
    1NGb    C0R   27  -0.216   0.841  -2.238
    1NGb    C0S   28  -0.121   0.795  -2.335
    1NGb    C0T   29  -0.136   0.797  -2.465
    1NGb    C0U   30  -0.042   0.747  -2.553
    1NGb    C0V   31  -0.038   0.752  -2.704
    1NGb    C0W   32  -0.134   0.806  -2.777
    1NGb    C0X   33  -0.247   0.879  -2.725
    1NGb    N0Y   34  -0.355   0.925  -2.707
    1NGb    C0Z   35  -0.101   0.785  -2.906
    1NGb    C10   36  -0.154   0.833  -3.025
    1NGb    C11   37  -0.275   0.900  -3.029
    1NGb    N12   38  -0.378   0.963  -3.041
    1NGb    C13   39  -0.102   0.780  -3.148
    1NGb    N14   40  -0.048   0.758  -3.254
    1NGb    O15   41   0.016   0.715  -2.915
    1NGb    C16   42   0.069   0.683  -2.782
    1NGb    C17   43   0.065   0.535  -2.754
    1NGb    C18   44  -0.033   0.459  -2.809
    1NGb    C19   45  -0.034   0.328  -2.787
    1NGb    C1A   46   0.062   0.267  -2.714
    1NGb    C1B   47   0.161   0.342  -2.655
    1NGb    C1C   48   0.159   0.480  -2.670
    1NGb    C1D   49   0.201   0.761  -2.770
    1NGb    F1E   50   0.175   0.889  -2.823
    1NGb    F1F   51   0.247   0.779  -2.642
    1NGb    F1G   52   0.289   0.703  -2.839
    1NGb    C1H   53  -0.331   0.935  -2.289
    1NGb    C1I   54  -0.375   1.027  -2.181
    1NGb    C1J   55  -0.278   1.136  -2.172
    1NGb    C1K   56  -0.514   1.086  -2.220
    1NGb    C1M   57  -0.396   0.953  -2.056
    1NGb    C1N   58  -0.254   0.751  -1.607
    1NGb    C1O   59  -0.242   0.738  -1.465
    1NGb    H1P   60   0.014   0.885  -1.259
    1NGb    H1Q   61  -0.064   0.846  -1.104
    1NGb    H1R   62  -0.159   0.913  -1.231
    1NGb    H1S   63  -0.250   0.566  -1.242
    1NGb    H1T   64  -0.293   0.719  -1.170
    1NGb    H1U   65  -0.128   0.678  -0.985
    1NGb    H1V   66  -0.064   0.538  -1.076
    1NGb    H1W   67  -0.025   0.540  -0.852
    1NGb    H1X   68   0.008   0.434  -0.641
    1NGb    H1Y   69  -0.028   0.433  -0.425
    1NGb    H1Z   70   0.008   0.331  -0.207
    1NGb    DUM   71  -0.060   0.154  -0.058
    1NGb    H21   72  -0.263   0.015  -0.311
    1NGb    H22   73  -0.300   0.116  -0.529
    1NGb    H23   74  -0.392   0.271  -0.653
    1NGb    H24   75  -0.425   0.379  -0.872
    1NGb    H25   76   0.097   0.720  -1.443
    1NGb    H26   77   0.074   0.759  -1.686
    1NGb    H27   78  -0.078   0.715  -1.886
    1NGb    H28   79  -0.309   0.901  -1.815
    1NGb    H29   80  -0.099   0.776  -2.086
    1NGb    H2A   81  -0.030   0.752  -2.294
    1NGb    H2B   82  -0.227   0.844  -2.496
    1NGb    H2C   83   0.033   0.693  -2.497
    1NGb    H2D   84  -0.108   0.500  -2.875
    1NGb    H2E   85  -0.110   0.262  -2.827
    1NGb    H2F   86   0.059   0.160  -2.697
    1NGb    H2G   87   0.239   0.302  -2.593
    1NGb    H2H   88   0.229   0.553  -2.635
    1NGb    H2I   89  -0.422   0.879  -2.309
    1NGb    H2J   90  -0.307   0.986  -2.382
    1NGb    H2K   91  -0.257   1.188  -2.266
    1NGb    H2M   92  -0.182   1.096  -2.138
    1NGb    H2N   93  -0.302   1.202  -2.089
    1NGb    H2O   94  -0.595   1.014  -2.239
    1NGb    H2P   95  -0.499   1.149  -2.306
    1NGb    H2Q   96  -0.540   1.152  -2.137
    1NGb    H2R   97  -0.476   0.881  -2.076
    1NGb    H2S   98  -0.426   1.015  -1.971
    1NGb    H2T   99  -0.351   0.757  -1.652
    1NGb    H2U  100  -0.333   0.737  -1.408
    1NGb    C00    1   0.665   0.844  -1.212
    1NGb    N01    2   0.635   0.716  -1.272
    1NGb    C02    3   0.532   0.653  -1.190
    1NGb    C03    4   0.589   0.600  -1.056
    1NGb    O04    5   0.486   0.518  -1.003
    1NGb    C05    6   0.509   0.466  -0.878
    1NGb    C06    7   0.632   0.483  -0.812
    1NGb    C07    8   0.653   0.422  -0.688
    1NGb    C08    9   0.552   0.344  -0.630
    1NGb    C09   10   0.574   0.283  -0.497
    1NGb    C0A   11   0.661   0.341  -0.403
    1NGb    C0B   12   0.680   0.284  -0.276
    1NGb    C0C   13   0.616   0.164  -0.243
    1NGb    DUM   14   0.638   0.100  -0.123
    1NGb    C0E   15   0.529   0.105  -0.336
    1NGb    C0F   16   0.507   0.166  -0.460
    1NGb    C0G   17   0.430   0.326  -0.695
    1NGb    C0H   18   0.409   0.389  -0.818
    1NGb    C0I   19   0.623   0.723  -1.406
    1NGb    C0J   20   0.740   0.728  -1.490
    1NGb    C0K   21   0.725   0.756  -1.623
    1NGb    C0M   22   0.603   0.766  -1.683
    1NGb    C0N   23   0.594   0.777  -1.828
    1NGb    C0O   24   0.496   0.850  -1.882
    1NGb    C0P   25   0.462   0.865  -2.015
    1NGb    C0Q   26   0.548   0.822  -2.108
    1NGb    C0R   27   0.524   0.841  -2.238
    1NGb    C0S   28   0.619   0.795  -2.335
    1NGb    C0T   29   0.604   0.797  -2.465
    1NGb    C0U   30   0.698   0.747  -2.553
    1NGb    C0V   31   0.702   0.752  -2.704
    1NGb    C0W   32   0.606   0.806  -2.777
    1NGb    C0X   33   0.493   0.879  -2.725
    1NGb    N0Y   34   0.385   0.925  -2.707
    1NGb    C0Z   35   0.639   0.785  -2.906
    1NGb    C10   36   0.586   0.833  -3.025
    1NGb    C11   37   0.465   0.900  -3.029
    1NGb    N12   38   0.362   0.963  -3.041
    1NGb    C13   39   0.638   0.780  -3.148
    1NGb    N14   40   0.692   0.758  -3.254
    1NGb    O15   41   0.756   0.715  -2.915
    1NGb    C16   42   0.809   0.683  -2.782
    1NGb    C17   43   0.805   0.535  -2.754
    1NGb    C18   44   0.707   0.459  -2.809
    1NGb    C19   45   0.706   0.328  -2.787
    1NGb    C1A   46   0.802   0.267  -2.714
    1NGb    C1B   47   0.901   0.342  -2.655
    1NGb    C1C   48   0.899   0.480  -2.670
    1NGb    C1D   49   0.941   0.761  -2.770
    1NGb    F1E   50   0.915   0.889  -2.823
    1NGb    F1F   51   0.987   0.779  -2.642
    1NGb    F1G   52   1.029   0.703  -2.839
    1NGb    C1H   53   0.409   0.935  -2.289
    1NGb    C1I   54   0.365   1.027  -2.181
    1NGb    C1J   55   0.462   1.136  -2.172
    1NGb    C1K   56   0.226   1.086  -2.220
    1NGb    C1M   57   0.344   0.953  -2.056
    1NGb    C1N   58   0.486   0.751  -1.607
    1NGb    C1O   59   0.498   0.738  -1.465
    1NGb    H1P   60   0.754   0.885  -1.259
    1NGb    H1Q   61   0.676   0.846  -1.104
    1NGb    H1R   62   0.581   0.913  -1.231
    1NGb    H1S   63   0.490   0.566  -1.242
    1NGb    H1T   64   0.447   0.719  -1.170
    1NGb    H1U   65   0.612   0.678  -0.985
    1NGb    H1V   66   0.676   0.538  -1.076
    1NGb    H1W   67   0.715   0.540  -0.852
    1NGb    H1X   68   0.748   0.434  -0.641
    1NGb    H1Y   69   0.712   0.433  -0.425
    1NGb    H1Z   70   0.748   0.331  -0.207
    1NGb    DUM   71   0.680   0.154  -0.058
    1NGb    H21   72   0.477   0.015  -0.311
    1NGb    H22   73   0.440   0.116  -0.529
    1NGb    H23   74   0.348   0.271  -0.653
    1NGb    H24   75   0.315   0.379  -0.872
    1NGb    H25   76   0.837   0.720  -1.443
    1NGb    H26   77   0.814   0.759  -1.686
    1NGb    H27   78   0.662   0.715  -1.886
    1NGb    H28   79   0.431   0.901  -1.815
    1NGb    H29   80   0.641   0.776  -2.086
    1NGb    H2A   81   0.710   0.752  -2.294
    1NGb    H2B   82   0.513   0.844  -2.496
    1NGb    H2C   83   0.773   0.693  -2.497
    1NGb    H2D   84   0.632   0.500  -2.875
    1NGb    H2E   85   0.630   0.262  -2.827
    1NGb    H2F   86   0.799   0.160  -2.697
    1NGb    H2G   87   0.979   0.302  -2.593
    1NGb    H2H   88   0.969   0.553  -2.635
    1NGb    H2I   89   0.318   0.879  -2.309
    1NGb    H2J   90   0.433   0.986  -2.382
    1NGb    H2K   91   0.483   1.188  -2.266
    1NGb    H2M   92   0.558   1.096  -2.138
    1NGb    H2N   93   0.438   1.202  -2.089
    1NGb    H2O   94   0.145   1.014  -2.239
    1NGb    H2P   95   0.241   1.149  -2.306
    1NGb    H2Q   96   0.200   1.152  -2.137
    1NGb    H2R   97   0.264   0.881  -2.076
    1NGb    H2S   98   0.314   1.015  -1.971
    1NGb    H2T   99   0.389   0.757  -1.652
    1NGb    H2U  100   0.407   0.737  -1.408
    1NGb    C00    1  -0.075   1.584  -1.212
    1NGb    N01    2  -0.105   1.456  -1.272
    1NGb    C02    3  -0.208   1.393  -1.190
    1NGb    C03    4  -0.151   1.340  -1.056
    1NGb    O04    5  -0.254   1.258  -1.003
    1NGb    C05    6  -0.231   1.206  -0.878
    1NGb    C06    7  -0.108   1.223  -0.812
    1NGb    C07    8  -0.087   1.162  -0.688
    1NGb    C08    9  -0.188   1.084  -0.630
    1NGb    C09   10  -0.166   1.023  -0.497
    1NGb    C0A   11  -0.079   1.081  -0.403
    1NGb    C0B   12  -0.060   1.024  -0.276
    1NGb    C0C   13  -0.124   0.904  -0.243
    1NGb    DUM   14  -0.102   0.840  -0.123
    1NGb    C0E   15  -0.211   0.845  -0.336
    1NGb    C0F   16  -0.233   0.906  -0.460
    1NGb    C0G   17  -0.310   1.066  -0.695
    1NGb    C0H   18  -0.331   1.129  -0.818
    1NGb    C0I   19  -0.117   1.463  -1.406
    1NGb    C0J   20   0.000   1.468  -1.490
    1NGb    C0K   21  -0.015   1.496  -1.623
    1NGb    C0M   22  -0.137   1.506  -1.683
    1NGb    C0N   23  -0.146   1.517  -1.828
    1NGb    C0O   24  -0.244   1.590  -1.882
    1NGb    C0P   25  -0.278   1.605  -2.015
    1NGb    C0Q   26  -0.192   1.562  -2.108
    1NGb    C0R   27  -0.216   1.581  -2.238
    1NGb    C0S   28  -0.121   1.535  -2.335
    1NGb    C0T   29  -0.136   1.537  -2.465
    1NGb    C0U   30  -0.042   1.487  -2.553
    1NGb    C0V   31  -0.038   1.492  -2.704
    1NGb    C0W   32  -0.134   1.546  -2.777
    1NGb    C0X   33  -0.247   1.619  -2.725
    1NGb    N0Y   34  -0.355   1.665  -2.707
    1NGb    C0Z   35  -0.101   1.525  -2.906
    1NGb    C10   36  -0.154   1.573  -3.025
    1NGb    C11   37  -0.275   1.640  -3.029
    1NGb    N12   38  -0.378   1.703  -3.041
    1NGb    C13   39  -0.102   1.520  -3.148
    1NGb    N14   40  -0.048   1.498  -3.254
    1NGb    O15   41   0.016   1.455  -2.915
    1NGb    C16   42   0.069   1.423  -2.782
    1NGb    C17   43   0.065   1.275  -2.754
    1NGb    C18   44  -0.033   1.199  -2.809
    1NGb    C19   45  -0.034   1.068  -2.787
    1NGb    C1A   46   0.062   1.007  -2.714
    1NGb    C1B   47   0.161   1.082  -2.655
    1NGb    C1C   48   0.159   1.220  -2.670
    1NGb    C1D   49   0.201   1.501  -2.770
    1NGb    F1E   50   0.175   1.629  -2.823
    1NGb    F1F   51   0.247   1.519  -2.642
    1NGb    F1G   52   0.289   1.443  -2.839
    1NGb    C1H   53  -0.331   1.675  -2.289
    1NGb    C1I   54  -0.375   1.767  -2.181
    1NGb    C1J   55  -0.278   1.876  -2.172
    1NGb    C1K   56  -0.514   1.826  -2.220
    1NGb    C1M   57  -0.396   1.693  -2.056
    1NGb    C1N   58  -0.254   1.491  -1.607
    1NGb    C1O   59  -0.242   1.478  -1.465
    1NGb    H1P   60   0.014   1.625  -1.259
    1NGb    H1Q   61  -0.064   1.586  -1.104
    1NGb    H1R   62  -0.159   1.653  -1.231
    1NGb    H1S   63  -0.250   1.306  -1.242
    1NGb    H1T   64  -0.293   1.459  -1.170
    1NGb    H1U   65  -0.128   1.418  -0.985
    1NGb    H1V   66  -0.064   1.278  -1.076
    1NGb    H1W   67  -0.025   1.280  -0.852
    1NGb    H1X   68   0.008   1.174  -0.641
    1NGb    H1Y   69  -0.028   1.173  -0.425
    1NGb    H1Z   70   0.008   1.071  -0.207
    1NGb    DUM   71  -0.060   0.894  -0.058
    1NGb    H21   72  -0.263   0.755  -0.311
    1NGb    H22   73  -0.300   0.856  -0.529
    1NGb    H23   74  -0.392   1.011  -0.653
    1NGb    H24   75  -0.425   1.119  -0.872
    1NGb    H25   76   0.097   1.460  -1.443
    1NGb    H26   77   0.074   1.499  -1.686
    1NGb    H27   78  -0.078   1.455  -1.886
    1NGb    H28   79  -0.309   1.641  -1.815
    1NGb    H29   80  -0.099   1.516  -2.086
    1NGb    H2A   81  -0.030   1.492  -2.294
    1NGb    H2B   82  -0.227   1.584  -2.496
    1NGb    H2C   83   0.033   1.433  -2.497
    1NGb    H2D   84  -0.108   1.240  -2.875
    1NGb    H2E   85  -0.110   1.002  -2.827
    1NGb    H2F   86   0.059   0.900  -2.697
    1NGb    H2G   87   0.239   1.042  -2.593
    1NGb    H2H   88   0.229   1.293  -2.635
    1NGb    H2I   89  -0.422   1.619  -2.309
    1NGb    H2J   90  -0.307   1.726  -2.382
    1NGb    H2K   91  -0.257   1.928  -2.266
    1NGb    H2M   92  -0.182   1.836  -2.138
    1NGb    H2N   93  -0.302   1.942  -2.089
    1NGb    H2O   94  -0.595   1.754  -2.239
    1NGb    H2P   95  -0.499   1.889  -2.306
    1NGb    H2Q   96  -0.540   1.892  -2.137
    1NGb    H2R   97  -0.476   1.621  -2.076
    1NGb    H2S   98  -0.426   1.755  -1.971
    1NGb    H2T   99  -0.351   1.497  -1.652
    1NGb    H2U  100  -0.333   1.477  -1.408
    1NGb    C00    1   0.665   1.584  -1.212
    1NGb    N01    2   0.635   1.456  -1.272
    1NGb    C02    3   0.532   1.393  -1.190
    1NGb    C03    4   0.589   1.340  -1.056
    1NGb    O04    5   0.486   1.258  -1.003
    1NGb    C05    6   0.509   1.206  -0.878
    1NGb    C06    7   0.632   1.223  -0.812
    1NGb    C07    8   0.653   1.162  -0.688
    1NGb    C08    9   0.552   1.084  -0.630
    1NGb    C09   10   0.574   1.023  -0.497
    1NGb    C0A   11   0.661   1.081  -0.403
    1NGb    C0B   12   0.680   1.024  -0.276
    1NGb    C0C   13   0.616   0.904  -0.243
    1NGb    DUM   14   0.638   0.840  -0.123
    1NGb    C0E   15   0.529   0.845  -0.336
    1NGb    C0F   16   0.507   0.906  -0.460
    1NGb    C0G   17   0.430   1.066  -0.695
    1NGb    C0H   18   0.409   1.129  -0.818
    1NGb    C0I   19   0.623   1.463  -1.406
    1NGb    C0J   20   0.740   1.468  -1.490
    1NGb    C0K   21   0.725   1.496  -1.623
    1NGb    C0M   22   0.603   1.506  -1.683
    1NGb    C0N   23   0.594   1.517  -1.828
    1NGb    C0O   24   0.496   1.590  -1.882
    1NGb    C0P   25   0.462   1.605  -2.015
    1NGb    C0Q   26   0.548   1.562  -2.108
    1NGb    C0R   27   0.524   1.581  -2.238
    1NGb    C0S   28   0.619   1.535  -2.335
    1NGb    C0T   29   0.604   1.537  -2.465
    1NGb    C0U   30   0.698   1.487  -2.553
    1NGb    C0V   31   0.702   1.492  -2.704
    1NGb    C0W   32   0.606   1.546  -2.777
    1NGb    C0X   33   0.493   1.619  -2.725
    1NGb    N0Y   34   0.385   1.665  -2.707
    1NGb    C0Z   35   0.639   1.525  -2.906
    1NGb    C10   36   0.586   1.573  -3.025
    1NGb    C11   37   0.465   1.640  -3.029
    1NGb    N12   38   0.362   1.703  -3.041
    1NGb    C13   39   0.638   1.520  -3.148
    1NGb    N14   40   0.692   1.498  -3.254
    1NGb    O15   41   0.756   1.455  -2.915
    1NGb    C16   42   0.809   1.423  -2.782
    1NGb    C17   43   0.805   1.275  -2.754
    1NGb    C18   44   0.707   1.199  -2.809
    1NGb    C19   45   0.706   1.068  -2.787
    1NGb    C1A   46   0.802   1.007  -2.714
    1NGb    C1B   47   0.901   1.082  -2.655
    1NGb    C1C   48   0.899   1.220  -2.670
    1NGb    C1D   49   0.941   1.501  -2.770
    1NGb    F1E   50   0.915   1.629  -2.823
    1NGb    F1F   51   0.987   1.519  -2.642
    1NGb    F1G   52   1.029   1.443  -2.839
    1NGb    C1H   53   0.409   1.675  -2.289
    1NGb    C1I   54   0.365   1.767  -2.181
    1NGb    C1J   55   0.462   1.876  -2.172
    1NGb    C1K   56   0.226   1.826  -2.220
    1NGb    C1M   57   0.344   1.693  -2.056
    1NGb    C1N   58   0.486   1.491  -1.607
    1NGb    C1O   59   0.498   1.478  -1.465
    1NGb    H1P   60   0.754   1.625  -1.259
    1NGb    H1Q   61   0.676   1.586  -1.104
    1NGb    H1R   62   0.581   1.653  -1.231
    1NGb    H1S   63   0.490   1.306  -1.242
    1NGb    H1T   64   0.447   1.459  -1.170
    1NGb    H1U   65   0.612   1.418  -0.985
    1NGb    H1V   66   0.676   1.278  -1.076
    1NGb    H1W   67   0.715   1.280  -0.852
    1NGb    H1X   68   0.748   1.174  -0.641
    1NGb    H1Y   69   0.712   1.173  -0.425
    1NGb    H1Z   70   0.748   1.071  -0.207
    1NGb    DUM   71   0.680   0.894  -0.058
    1NGb    H21   72   0.477   0.755  -0.311
    1NGb    H22   73   0.440   0.856  -0.529
    1NGb    H23   74   0.348   1.011  -0.653
    1NGb    H24   75   0.315   1.119  -0.872
    1NGb    H25   76   0.837   1.460  -1.443
    1NGb    H26   77   0.814   1.499  -1.686
    1NGb    H27   78   0.662   1.455  -1.886
    1NGb    H28   79   0.431   1.641  -1.815
    1NGb    H29   80   0.641   1.516  -2.086
    1NGb    H2A   81   0.710   1.492  -2.294
    1NGb    H2B   82   0.513   1.584  -2.496
    1NGb    H2C   83   0.773   1.433  -2.497
    1NGb    H2D   84   0.632   1.240  -2.875
    1NGb    H2E   85   0.630   1.002  -2.827
    1NGb    H2F   86   0.799   0.900  -2.697
    1NGb    H2G   87   0.979   1.042  -2.593
    1NGb    H2H   88   0.969   1.293  -2.635
    1NGb    H2I   89   0.318   1.619  -2.309
    1NGb    H2J   90   0.433   1.726  -2.382
    1NGb    H2K   91   0.483   1.928  -2.266
    1NGb    H2M   92   0.558   1.836  -2.138
    1NGb    H2N   93   0.438   1.942  -2.089
    1NGb    H2O   94   0.145   1.754  -2.239
    1NGb    H2P   95   0.241   1.889  -2.306
    1NGb    H2Q   96   0.200   1.892  -2.137
    1NGb    H2R   97   0.264   1.621  -2.076
    1NGb    H2S   98   0.314   1.755  -1.971
    1NGb    H2T   99   0.389   1.497  -1.652
    1NGb    H2U  100   0.407   1.477  -1.408
1.47974 1.47974 4.73987 
