;SiO2 001 face - NGS topology developed by ChamikaraK University of California Merced | 

[ atomtypes ]
opls_826	H826	1.0080	0.000	A	2.50000E-01	1.25520E-01
opls_810	H810	1.0080	0.000	A	2.50000E-01	1.25520E-01
opls_800	Si800	28.0850	0.000	A	4.00000E-01	4.18400E-01
opls_827	H827	1.0080	0.000	A	2.50000E-01	1.25520E-01
opls_801	H801	1.0080	0.000	A	2.50000E-01	1.25520E-01
opls_820	H820	1.0080	0.000	A	2.50000E-01	1.25520E-01
opls_811	H811	1.0080	0.000	A	2.50000E-01	1.25520E-01
opls_803	H803	1.0080	0.000	A	2.50000E-01	1.25520E-01
opls_808	O808	15.9990	0.000	A	2.90000E-01	5.85760E-01
opls_802	H802	1.0080	0.000	A	2.50000E-01	1.25520E-01
opls_819	H819	1.0080	0.000	A	2.50000E-01	1.25520E-01
opls_809	O809	15.9990	0.000	A	3.12000E-01	7.11280E-01
opls_806	H808	1.0080	0.000	A	0.00000E+00	0.00000E+00
						
opls_899	H899	1.0080	0.000	A	2.42000E-01	1.25520E-01
opls_new	DUM1	0.0000	0.000	A	0.00000E-01	0.00000E-01
opls_843	C843	12.0110	0.000	A	3.55000E-01	2.92880E-01
opls_861	H861	1.0080	0.000	A	2.50000E-01	1.25520E-01
opls_880	H880	1.0080	0.000	A	2.50000E-01	1.25520E-01
opls_895	H895	1.0080	0.000	A	2.50000E-01	1.25520E-01
opls_849	F849	18.9984	0.000	A	2.90000E-01	2.51040E-01
opls_888	H888	1.0080	0.000	A	2.50000E-01	1.25520E-01
opls_812	C812	12.0110	0.000	A	3.55000E-01	2.92880E-01
opls_822	C822	12.0110	0.000	A	3.55000E-01	3.17984E-01
opls_865	H865	1.0080	0.000	A	2.50000E-01	1.25520E-01
opls_810	C810	12.0110	0.000	A	3.55000E-01	2.92880E-01
opls_800	C800	12.0110	0.000	A	3.50000E-01	2.76144E-01
opls_815	C815	12.0110	0.000	A	3.55000E-01	2.92880E-01
opls_834	C834	12.0110	0.000	A	3.55000E-01	2.92880E-01
opls_897	H897	1.0080	0.000	A	2.50000E-01	1.25520E-01
opls_857	C857	12.0110	0.000	A	3.55000E-01	2.92880E-01
opls_855	C855	12.0110	0.000	A	3.50000E-01	2.76144E-01
opls_829	C829	12.0110	0.000	A	3.55000E-01	3.17984E-01
opls_853	C853	12.0110	0.000	A	3.50000E-01	2.76144E-01
opls_879	H879	1.0080	0.000	A	2.42000E-01	1.25520E-01
opls_856	C856	12.0110	0.000	A	3.50000E-01	2.76144E-01
opls_887	H887	1.0080	0.000	A	2.42000E-01	1.25520E-01
opls_805	C805	12.0110	0.000	A	3.55000E-01	2.92880E-01
opls_817	C817	12.0110	0.000	A	3.55000E-01	2.92880E-01
opls_885	H885	1.0080	0.000	A	2.42000E-01	1.25520E-01
opls_866	H866	1.0080	0.000	A	2.42000E-01	1.25520E-01
opls_898	H898	1.0080	0.000	A	2.42000E-01	1.25520E-01
opls_864	H864	1.0080	0.000	A	2.50000E-01	1.25520E-01
opls_840	O840	15.9990	0.000	A	2.90000E-01	5.85760E-01
opls_821	C821	12.0110	0.000	A	3.55000E-01	2.92880E-01
opls_809	C809	12.0110	0.000	A	3.55000E-01	2.92880E-01
opls_819	C819	12.0110	0.000	A	3.55000E-01	2.92880E-01
opls_816	C816	12.0110	0.000	A	3.55000E-01	2.92880E-01
opls_831	C831	12.0110	0.000	A	3.55000E-01	3.17984E-01
opls_832	C832	12.0110	0.000	A	3.30000E-01	2.76144E-01
opls_830	C830	12.0110	0.000	A	3.55000E-01	3.17984E-01
opls_881	H881	1.0080	0.000	A	2.50000E-01	1.25520E-01
opls_833	N833	14.0070	0.000	A	3.20000E-01	7.11280E-01
opls_852	C852	12.0110	0.000	A	3.50000E-01	2.76144E-01
opls_874	H874	1.0080	0.000	A	2.42000E-01	1.25520E-01
opls_876	H876	1.0080	0.000	A	2.42000E-01	1.25520E-01
opls_889	H889	1.0080	0.000	A	2.50000E-01	1.25520E-01
opls_851	F851	18.9984	0.000	A	2.90000E-01	2.51040E-01
opls_863	H863	1.0080	0.000	A	2.50000E-01	1.25520E-01
opls_893	H893	1.0080	0.000	A	2.50000E-01	1.25520E-01
opls_850	F850	18.9984	0.000	A	2.90000E-01	2.51040E-01
opls_892	H892	1.0080	0.000	A	2.50000E-01	1.25520E-01
opls_846	C846	12.0110	0.000	A	3.55000E-01	2.92880E-01
opls_844	C844	12.0110	0.000	A	3.55000E-01	2.92880E-01
opls_839	N839	14.0070	0.000	A	3.20000E-01	7.11280E-01
opls_867	H867	1.0080	0.000	A	2.42000E-01	1.25520E-01
opls_862	H862	1.0080	0.000	A	2.50000E-01	1.25520E-01
opls_890	H890	1.0080	0.000	A	2.50000E-01	1.25520E-01
opls_847	C847	12.0110	0.000	A	3.55000E-01	2.92880E-01
opls_860	H860	1.0080	0.000	A	2.50000E-01	1.25520E-01
opls_803	C803	12.0110	0.000	A	3.50000E-01	2.76144E-01
opls_875	H875	1.0080	0.000	A	2.42000E-01	1.25520E-01
opls_824	C824	12.0110	0.000	A	3.55000E-01	3.17984E-01
opls_818	C818	12.0110	0.000	A	3.55000E-01	2.92880E-01
opls_825	C825	12.0110	0.000	A	3.55000E-01	3.17984E-01
opls_841	C841	12.0110	0.000	A	3.50000E-01	2.76144E-01
opls_848	C848	12.0110	0.000	A	3.50000E-01	2.76144E-01
opls_838	C838	12.0110	0.000	A	3.30000E-01	2.76144E-01
opls_868	H868	1.0080	0.000	A	2.42000E-01	1.25520E-01
opls_854	C854	12.0110	0.000	A	3.50000E-01	2.76144E-01
opls_836	C836	12.0110	0.000	A	3.30000E-01	2.76144E-01
opls_827	C827	12.0110	0.000	A	3.55000E-01	3.17984E-01
opls_828	C828	12.0110	0.000	A	3.55000E-01	3.17984E-01
opls_896	H896	1.0080	0.000	A	2.50000E-01	1.25520E-01
opls_807	C807	12.0110	0.000	A	3.55000E-01	2.92880E-01
opls_820	C820	12.0110	0.000	A	3.55000E-01	2.92880E-01
opls_826	C826	12.0110	0.000	A	3.55000E-01	3.17984E-01
opls_804	O804	15.9990	0.000	A	2.90000E-01	5.85760E-01
opls_808	C808	12.0110	0.000	A	3.55000E-01	2.92880E-01
opls_845	C845	12.0110	0.000	A	3.55000E-01	2.92880E-01
opls_801	N801	14.0070	0.000	A	3.30000E-01	7.11280E-01
opls_878	H878	1.0080	0.000	A	2.50000E-01	1.25520E-01
opls_858	C858	12.0110	0.000	A	3.55000E-01	2.92880E-01
opls_814	C814	12.0110	0.000	A	3.55000E-01	2.92880E-01
opls_837	N837	14.0070	0.000	A	3.20000E-01	7.11280E-01
opls_802	C802	12.0110	0.000	A	3.50000E-01	2.76144E-01
opls_886	H886	1.0080	0.000	A	2.42000E-01	1.25520E-01
opls_883	H883	1.0080	0.000	A	2.42000E-01	1.25520E-01
opls_869	H869	1.0080	0.000	A	2.42000E-01	1.25520E-01
opls_877	H877	1.0080	0.000	A	2.50000E-01	1.25520E-01
opls_872	H872	1.0080	0.000	A	2.42000E-01	1.25520E-01
opls_870	H870	1.0080	0.000	A	0.00000E+00	0.00000E+00
opls_806	C806	12.0110	0.000	A	3.55000E-01	2.92880E-01
opls_811	C811	12.0110	0.000	A	3.55000E-01	2.92880E-01
opls_823	C823	12.0110	0.000	A	3.55000E-01	3.17984E-01
opls_871	H871	1.0080	0.000	A	2.42000E-01	1.25520E-01
opls_894	H894	1.0080	0.000	A	2.50000E-01	1.25520E-01
opls_813	O813	15.9990	0.000	A	3.12000E-01	7.11280E-01
opls_891	H891	1.0080	0.000	A	2.50000E-01	1.25520E-01
opls_873	H873	1.0080	0.000	A	2.42000E-01	1.25520E-01
opls_884	H884	1.0080	0.000	A	2.42000E-01	1.25520E-01
opls_835	C835	12.0110	0.000	A	3.55000E-01	3.17984E-01
opls_882	H882	1.0080	0.000	A	2.50000E-01	1.25520E-01
opls_859	H859	1.0080	0.000	A	2.50000E-01	1.25520E-01
opls_842	C842	12.0110	0.000	A	3.55000E-01	2.92880E-01
[ moleculetype ]
; Name               nrexcl
SiO                   3

[ atoms ]
1	opls_800	1	SiO	Si0	1	0.0	28.0850
2	opls_809	1	SiO	O0X	1	0.0	15.9990
3	opls_809	1	SiO	O11	1	0.0	15.9990
4	opls_808	1	SiO	O04	1	0.0	15.9990
5	opls_800	1	SiO	Si1	1	0.0	28.0850
6	opls_808	1	SiO	O05	1	0.0	15.9990
7	opls_808	1	SiO	O06	1	0.0	15.9990
8	opls_808	1	SiO	O08	1	0.0	15.9990
9	opls_800	1	SiO	Si2	1	0.0	28.0850
10	opls_809	1	SiO	O13	1	0.0	15.9990
11	opls_809	1	SiO	O14	1	0.0	15.9990
12	opls_808	1	SiO	O0C	1	0.0	15.9990
13	opls_800	1	SiO	Si3	1	0.0	28.0850
14	opls_808	1	SiO	O09	1	0.0	15.9990
15	opls_808	1	SiO	O0F	1	0.0	15.9990
16	opls_800	1	SiO	Si4	1	0.0	28.0850
17	opls_808	1	SiO	O0H	1	0.0	15.9990
18	opls_800	1	SiO	Si5	1	0.0	28.0850
19	opls_819	1	SiO	H0J	1	0.0	1.0080
20	opls_820	1	SiO	H0K	1	0.0	1.0080
21	opls_808	1	SiO	O10	1	0.0	15.9990
22	opls_808	1	SiO	O0N	1	0.0	15.9990
23	opls_800	1	SiO	Si6	1	0.0	28.0850
24	opls_808	1	SiO	O0P	1	0.0	15.9990
25	opls_800	1	SiO	Si7	1	0.0	28.0850
26	opls_826	1	SiO	H0R	1	0.0	1.0080
27	opls_808	1	SiO	H0S	1	0.0	1.0080
28	opls_808	1	SiO	O11	1	0.0	15.9990
29	opls_800	1	SiO	Si0	1	0.0	28.0850
30	opls_809	1	SiO	O0X	1	0.0	15.9990
31	opls_809	1	SiO	O11	1	0.0	15.9990
32	opls_808	1	SiO	O04	1	0.0	15.9990
33	opls_800	1	SiO	Si1	1	0.0	28.0850
34	opls_808	1	SiO	O05	1	0.0	15.9990
35	opls_808	1	SiO	O06	1	0.0	15.9990
36	opls_808	1	SiO	O08	1	0.0	15.9990
37	opls_800	1	SiO	Si2	1	0.0	28.0850
38	opls_809	1	SiO	O13	1	0.0	15.9990
39	opls_809	1	SiO	O14	1	0.0	15.9990
40	opls_808	1	SiO	O0C	1	0.0	15.9990
41	opls_800	1	SiO	Si3	1	0.0	28.0850
42	opls_808	1	SiO	O09	1	0.0	15.9990
43	opls_808	1	SiO	O0F	1	0.0	15.9990
44	opls_800	1	SiO	Si4	1	0.0	28.0850
45	opls_808	1	SiO	O0H	1	0.0	15.9990
46	opls_800	1	SiO	Si5	1	0.0	28.0850
47	opls_819	1	SiO	H0J	1	0.0	1.0080
48	opls_820	1	SiO	H0K	1	0.0	1.0080
49	opls_808	1	SiO	O10	1	0.0	15.9990
50	opls_808	1	SiO	O0N	1	0.0	15.9990
51	opls_800	1	SiO	Si6	1	0.0	28.0850
52	opls_808	1	SiO	O0P	1	0.0	15.9990
53	opls_800	1	SiO	Si7	1	0.0	28.0850
54	opls_826	1	SiO	H0R	1	0.0	1.0080
55	opls_808	1	SiO	H0S	1	0.0	1.0080
56	opls_808	1	SiO	O11	1	0.0	15.9990
57	opls_800	1	SiO	Si0	1	0.0	28.0850
58	opls_809	1	SiO	O0X	1	0.0	15.9990
59	opls_809	1	SiO	O11	1	0.0	15.9990
60	opls_808	1	SiO	O04	1	0.0	15.9990
61	opls_800	1	SiO	Si1	1	0.0	28.0850
62	opls_808	1	SiO	O05	1	0.0	15.9990
63	opls_808	1	SiO	O06	1	0.0	15.9990
64	opls_808	1	SiO	O08	1	0.0	15.9990
65	opls_800	1	SiO	Si2	1	0.0	28.0850
66	opls_809	1	SiO	O13	1	0.0	15.9990
67	opls_809	1	SiO	O14	1	0.0	15.9990
68	opls_808	1	SiO	O0C	1	0.0	15.9990
69	opls_800	1	SiO	Si3	1	0.0	28.0850
70	opls_808	1	SiO	O09	1	0.0	15.9990
71	opls_808	1	SiO	O0F	1	0.0	15.9990
72	opls_800	1	SiO	Si4	1	0.0	28.0850
73	opls_808	1	SiO	O0H	1	0.0	15.9990
74	opls_800	1	SiO	Si5	1	0.0	28.0850
75	opls_819	1	SiO	H0J	1	0.0	1.0080
76	opls_820	1	SiO	H0K	1	0.0	1.0080
77	opls_808	1	SiO	O10	1	0.0	15.9990
78	opls_808	1	SiO	O0N	1	0.0	15.9990
79	opls_800	1	SiO	Si6	1	0.0	28.0850
80	opls_808	1	SiO	O0P	1	0.0	15.9990
81	opls_800	1	SiO	Si7	1	0.0	28.0850
82	opls_826	1	SiO	H0R	1	0.0	1.0080
83	opls_808	1	SiO	H0S	1	0.0	1.0080
84	opls_808	1	SiO	O11	1	0.0	15.9990
85	opls_800	1	SiO	Si0	1	0.0	28.0850
86	opls_809	1	SiO	O0X	1	0.0	15.9990
87	opls_809	1	SiO	O11	1	0.0	15.9990
88	opls_808	1	SiO	O04	1	0.0	15.9990
89	opls_800	1	SiO	Si1	1	0.0	28.0850
90	opls_808	1	SiO	O05	1	0.0	15.9990
91	opls_808	1	SiO	O06	1	0.0	15.9990
92	opls_808	1	SiO	O08	1	0.0	15.9990
93	opls_800	1	SiO	Si2	1	0.0	28.0850
94	opls_809	1	SiO	O13	1	0.0	15.9990
95	opls_809	1	SiO	O14	1	0.0	15.9990
96	opls_808	1	SiO	O0C	1	0.0	15.9990
97	opls_800	1	SiO	Si3	1	0.0	28.0850
98	opls_808	1	SiO	O09	1	0.0	15.9990
99	opls_808	1	SiO	O0F	1	0.0	15.9990
100	opls_800	1	SiO	Si4	1	0.0	28.0850
101	opls_808	1	SiO	O0H	1	0.0	15.9990
102	opls_800	1	SiO	Si5	1	0.0	28.0850
103	opls_819	1	SiO	H0J	1	0.0	1.0080
104	opls_820	1	SiO	H0K	1	0.0	1.0080
105	opls_808	1	SiO	O10	1	0.0	15.9990
106	opls_808	1	SiO	O0N	1	0.0	15.9990
107	opls_800	1	SiO	Si6	1	0.0	28.0850
108	opls_808	1	SiO	O0P	1	0.0	15.9990
109	opls_800	1	SiO	Si7	1	0.0	28.0850
110	opls_826	1	SiO	H0R	1	0.0	1.0080
111	opls_808	1	SiO	H0S	1	0.0	1.0080
112	opls_808	1	SiO	O11	1	0.0	15.9990
113	opls_800	1	SiO	Si0	1	0.0	28.0850
114	opls_809	1	SiO	O0X	1	0.0	15.9990
115	opls_809	1	SiO	O11	1	0.0	15.9990
116	opls_808	1	SiO	O04	1	0.0	15.9990
117	opls_800	1	SiO	Si1	1	0.0	28.0850
118	opls_808	1	SiO	O05	1	0.0	15.9990
119	opls_808	1	SiO	O06	1	0.0	15.9990
120	opls_808	1	SiO	O08	1	0.0	15.9990
121	opls_800	1	SiO	Si2	1	0.0	28.0850
122	opls_809	1	SiO	O13	1	0.0	15.9990
123	opls_809	1	SiO	O14	1	0.0	15.9990
124	opls_808	1	SiO	O0C	1	0.0	15.9990
125	opls_800	1	SiO	Si3	1	0.0	28.0850
126	opls_808	1	SiO	O09	1	0.0	15.9990
127	opls_808	1	SiO	O0F	1	0.0	15.9990
128	opls_800	1	SiO	Si4	1	0.0	28.0850
129	opls_808	1	SiO	O0H	1	0.0	15.9990
130	opls_800	1	SiO	Si5	1	0.0	28.0850
131	opls_819	1	SiO	H0J	1	0.0	1.0080
132	opls_820	1	SiO	H0K	1	0.0	1.0080
133	opls_808	1	SiO	O10	1	0.0	15.9990
134	opls_808	1	SiO	O0N	1	0.0	15.9990
135	opls_800	1	SiO	Si6	1	0.0	28.0850
136	opls_808	1	SiO	O0P	1	0.0	15.9990
137	opls_800	1	SiO	Si7	1	0.0	28.0850
138	opls_826	1	SiO	H0R	1	0.0	1.0080
139	opls_808	1	SiO	H0S	1	0.0	1.0080
140	opls_808	1	SiO	O11	1	0.0	15.9990
141	opls_800	1	SiO	Si0	1	0.0	28.0850
142	opls_809	1	SiO	O0X	1	0.0	15.9990
143	opls_809	1	SiO	O11	1	0.0	15.9990
144	opls_808	1	SiO	O04	1	0.0	15.9990
145	opls_800	1	SiO	Si1	1	0.0	28.0850
146	opls_808	1	SiO	O05	1	0.0	15.9990
147	opls_808	1	SiO	O06	1	0.0	15.9990
148	opls_808	1	SiO	O08	1	0.0	15.9990
149	opls_800	1	SiO	Si2	1	0.0	28.0850
150	opls_809	1	SiO	O13	1	0.0	15.9990
151	opls_809	1	SiO	O14	1	0.0	15.9990
152	opls_808	1	SiO	O0C	1	0.0	15.9990
153	opls_800	1	SiO	Si3	1	0.0	28.0850
154	opls_808	1	SiO	O09	1	0.0	15.9990
155	opls_808	1	SiO	O0F	1	0.0	15.9990
156	opls_800	1	SiO	Si4	1	0.0	28.0850
157	opls_808	1	SiO	O0H	1	0.0	15.9990
158	opls_800	1	SiO	Si5	1	0.0	28.0850
159	opls_819	1	SiO	H0J	1	0.0	1.0080
160	opls_820	1	SiO	H0K	1	0.0	1.0080
161	opls_808	1	SiO	O10	1	0.0	15.9990
162	opls_808	1	SiO	O0N	1	0.0	15.9990
163	opls_800	1	SiO	Si6	1	0.0	28.0850
164	opls_808	1	SiO	O0P	1	0.0	15.9990
165	opls_800	1	SiO	Si7	1	0.0	28.0850
166	opls_826	1	SiO	H0R	1	0.0	1.0080
167	opls_808	1	SiO	H0S	1	0.0	1.0080
168	opls_808	1	SiO	O11	1	0.0	15.9990
169	opls_800	1	SiO	Si0	1	0.0	28.0850
170	opls_809	1	SiO	O0X	1	0.0	15.9990
171	opls_809	1	SiO	O11	1	0.0	15.9990
172	opls_808	1	SiO	O04	1	0.0	15.9990
173	opls_800	1	SiO	Si1	1	0.0	28.0850
174	opls_808	1	SiO	O05	1	0.0	15.9990
175	opls_808	1	SiO	O06	1	0.0	15.9990
176	opls_808	1	SiO	O08	1	0.0	15.9990
177	opls_800	1	SiO	Si2	1	0.0	28.0850
178	opls_809	1	SiO	O13	1	0.0	15.9990
179	opls_809	1	SiO	O14	1	0.0	15.9990
180	opls_808	1	SiO	O0C	1	0.0	15.9990
181	opls_800	1	SiO	Si3	1	0.0	28.0850
182	opls_808	1	SiO	O09	1	0.0	15.9990
183	opls_808	1	SiO	O0F	1	0.0	15.9990
184	opls_800	1	SiO	Si4	1	0.0	28.0850
185	opls_808	1	SiO	O0H	1	0.0	15.9990
186	opls_800	1	SiO	Si5	1	0.0	28.0850
187	opls_819	1	SiO	H0J	1	0.0	1.0080
188	opls_820	1	SiO	H0K	1	0.0	1.0080
189	opls_808	1	SiO	O10	1	0.0	15.9990
190	opls_808	1	SiO	O0N	1	0.0	15.9990
191	opls_800	1	SiO	Si6	1	0.0	28.0850
192	opls_808	1	SiO	O0P	1	0.0	15.9990
193	opls_800	1	SiO	Si7	1	0.0	28.0850
194	opls_826	1	SiO	H0R	1	0.0	1.0080
195	opls_808	1	SiO	H0S	1	0.0	1.0080
196	opls_808	1	SiO	O11	1	0.0	15.9990
197	opls_800	1	SiO	Si0	1	0.0	28.0850
198	opls_809	1	SiO	O0X	1	0.0	15.9990
199	opls_809	1	SiO	O11	1	0.0	15.9990
200	opls_808	1	SiO	O04	1	0.0	15.9990
201	opls_800	1	SiO	Si1	1	0.0	28.0850
202	opls_808	1	SiO	O05	1	0.0	15.9990
203	opls_808	1	SiO	O06	1	0.0	15.9990
204	opls_808	1	SiO	O08	1	0.0	15.9990
205	opls_800	1	SiO	Si2	1	0.0	28.0850
206	opls_809	1	SiO	O13	1	0.0	15.9990
207	opls_809	1	SiO	O14	1	0.0	15.9990
208	opls_808	1	SiO	O0C	1	0.0	15.9990
209	opls_800	1	SiO	Si3	1	0.0	28.0850
210	opls_808	1	SiO	O09	1	0.0	15.9990
211	opls_808	1	SiO	O0F	1	0.0	15.9990
212	opls_800	1	SiO	Si4	1	0.0	28.0850
213	opls_808	1	SiO	O0H	1	0.0	15.9990
214	opls_800	1	SiO	Si5	1	0.0	28.0850
215	opls_819	1	SiO	H0J	1	0.0	1.0080
216	opls_820	1	SiO	H0K	1	0.0	1.0080
217	opls_808	1	SiO	O10	1	0.0	15.9990
218	opls_808	1	SiO	O0N	1	0.0	15.9990
219	opls_800	1	SiO	Si6	1	0.0	28.0850
220	opls_808	1	SiO	O0P	1	0.0	15.9990
221	opls_800	1	SiO	Si7	1	0.0	28.0850
222	opls_826	1	SiO	H0R	1	0.0	1.0080
223	opls_808	1	SiO	H0S	1	0.0	1.0080
224	opls_808	1	SiO	O11	1	0.0	15.9990
225	opls_800	1	SiO	Si0	1	0.0	28.0850
226	opls_809	1	SiO	O0X	1	0.0	15.9990
227	opls_809	1	SiO	O11	1	0.0	15.9990
228	opls_808	1	SiO	O04	1	0.0	15.9990
229	opls_800	1	SiO	Si1	1	0.0	28.0850
230	opls_808	1	SiO	O05	1	0.0	15.9990
231	opls_808	1	SiO	O06	1	0.0	15.9990
232	opls_808	1	SiO	O08	1	0.0	15.9990
233	opls_800	1	SiO	Si2	1	0.0	28.0850
234	opls_809	1	SiO	O13	1	0.0	15.9990
235	opls_809	1	SiO	O14	1	0.0	15.9990
236	opls_808	1	SiO	O0C	1	0.0	15.9990
237	opls_800	1	SiO	Si3	1	0.0	28.0850
238	opls_808	1	SiO	O09	1	0.0	15.9990
239	opls_808	1	SiO	O0F	1	0.0	15.9990
240	opls_800	1	SiO	Si4	1	0.0	28.0850
241	opls_808	1	SiO	O0H	1	0.0	15.9990
242	opls_800	1	SiO	Si5	1	0.0	28.0850
243	opls_819	1	SiO	H0J	1	0.0	1.0080
244	opls_820	1	SiO	H0K	1	0.0	1.0080
245	opls_808	1	SiO	O10	1	0.0	15.9990
246	opls_808	1	SiO	O0N	1	0.0	15.9990
247	opls_800	1	SiO	Si6	1	0.0	28.0850
248	opls_808	1	SiO	O0P	1	0.0	15.9990
249	opls_800	1	SiO	Si7	1	0.0	28.0850
250	opls_826	1	SiO	H0R	1	0.0	1.0080
251	opls_808	1	SiO	H0S	1	0.0	1.0080
252	opls_808	1	SiO	O11	1	0.0	15.9990
253	opls_800	1	SiO	Si0	1	0.0	28.0850
254	opls_809	1	SiO	O0X	1	0.0	15.9990
255	opls_809	1	SiO	O11	1	0.0	15.9990
256	opls_808	1	SiO	O04	1	0.0	15.9990
257	opls_800	1	SiO	Si1	1	0.0	28.0850
258	opls_808	1	SiO	O05	1	0.0	15.9990
259	opls_808	1	SiO	O06	1	0.0	15.9990
260	opls_808	1	SiO	O08	1	0.0	15.9990
261	opls_800	1	SiO	Si2	1	0.0	28.0850
262	opls_809	1	SiO	O13	1	0.0	15.9990
263	opls_809	1	SiO	O14	1	0.0	15.9990
264	opls_808	1	SiO	O0C	1	0.0	15.9990
265	opls_800	1	SiO	Si3	1	0.0	28.0850
266	opls_808	1	SiO	O09	1	0.0	15.9990
267	opls_808	1	SiO	O0F	1	0.0	15.9990
268	opls_800	1	SiO	Si4	1	0.0	28.0850
269	opls_808	1	SiO	O0H	1	0.0	15.9990
270	opls_800	1	SiO	Si5	1	0.0	28.0850
271	opls_819	1	SiO	H0J	1	0.0	1.0080
272	opls_820	1	SiO	H0K	1	0.0	1.0080
273	opls_808	1	SiO	O10	1	0.0	15.9990
274	opls_808	1	SiO	O0N	1	0.0	15.9990
275	opls_800	1	SiO	Si6	1	0.0	28.0850
276	opls_808	1	SiO	O0P	1	0.0	15.9990
277	opls_800	1	SiO	Si7	1	0.0	28.0850
278	opls_826	1	SiO	H0R	1	0.0	1.0080
279	opls_808	1	SiO	H0S	1	0.0	1.0080
280	opls_808	1	SiO	O11	1	0.0	15.9990
281	opls_800	1	SiO	Si0	1	0.0	28.0850
282	opls_809	1	SiO	O0X	1	0.0	15.9990
283	opls_809	1	SiO	O11	1	0.0	15.9990
284	opls_808	1	SiO	O04	1	0.0	15.9990
285	opls_800	1	SiO	Si1	1	0.0	28.0850
286	opls_808	1	SiO	O05	1	0.0	15.9990
287	opls_808	1	SiO	O06	1	0.0	15.9990
288	opls_808	1	SiO	O08	1	0.0	15.9990
289	opls_800	1	SiO	Si2	1	0.0	28.0850
290	opls_809	1	SiO	O13	1	0.0	15.9990
291	opls_809	1	SiO	O14	1	0.0	15.9990
292	opls_808	1	SiO	O0C	1	0.0	15.9990
293	opls_800	1	SiO	Si3	1	0.0	28.0850
294	opls_808	1	SiO	O09	1	0.0	15.9990
295	opls_808	1	SiO	O0F	1	0.0	15.9990
296	opls_800	1	SiO	Si4	1	0.0	28.0850
297	opls_808	1	SiO	O0H	1	0.0	15.9990
298	opls_800	1	SiO	Si5	1	0.0	28.0850
299	opls_819	1	SiO	H0J	1	0.0	1.0080
300	opls_820	1	SiO	H0K	1	0.0	1.0080
301	opls_808	1	SiO	O10	1	0.0	15.9990
302	opls_808	1	SiO	O0N	1	0.0	15.9990
303	opls_800	1	SiO	Si6	1	0.0	28.0850
304	opls_808	1	SiO	O0P	1	0.0	15.9990
305	opls_800	1	SiO	Si7	1	0.0	28.0850
306	opls_826	1	SiO	H0R	1	0.0	1.0080
307	opls_808	1	SiO	H0S	1	0.0	1.0080
308	opls_808	1	SiO	O11	1	0.0	15.9990
309	opls_800	1	SiO	Si0	1	0.0	28.0850
310	opls_809	1	SiO	O0X	1	0.0	15.9990
311	opls_809	1	SiO	O11	1	0.0	15.9990
312	opls_808	1	SiO	O04	1	0.0	15.9990
313	opls_800	1	SiO	Si1	1	0.0	28.0850
314	opls_808	1	SiO	O05	1	0.0	15.9990
315	opls_808	1	SiO	O06	1	0.0	15.9990
316	opls_808	1	SiO	O08	1	0.0	15.9990
317	opls_800	1	SiO	Si2	1	0.0	28.0850
318	opls_809	1	SiO	O13	1	0.0	15.9990
319	opls_809	1	SiO	O14	1	0.0	15.9990
320	opls_808	1	SiO	O0C	1	0.0	15.9990
321	opls_800	1	SiO	Si3	1	0.0	28.0850
322	opls_808	1	SiO	O09	1	0.0	15.9990
323	opls_808	1	SiO	O0F	1	0.0	15.9990
324	opls_800	1	SiO	Si4	1	0.0	28.0850
325	opls_808	1	SiO	O0H	1	0.0	15.9990
326	opls_800	1	SiO	Si5	1	0.0	28.0850
327	opls_819	1	SiO	H0J	1	0.0	1.0080
328	opls_820	1	SiO	H0K	1	0.0	1.0080
329	opls_808	1	SiO	O10	1	0.0	15.9990
330	opls_808	1	SiO	O0N	1	0.0	15.9990
331	opls_800	1	SiO	Si6	1	0.0	28.0850
332	opls_808	1	SiO	O0P	1	0.0	15.9990
333	opls_800	1	SiO	Si7	1	0.0	28.0850
334	opls_826	1	SiO	H0R	1	0.0	1.0080
335	opls_808	1	SiO	H0S	1	0.0	1.0080
336	opls_808	1	SiO	O11	1	0.0	15.9990
337	opls_800	1	SiO	Si0	1	0.0	28.0850
338	opls_809	1	SiO	O0X	1	0.0	15.9990
339	opls_809	1	SiO	O11	1	0.0	15.9990
340	opls_808	1	SiO	O04	1	0.0	15.9990
341	opls_800	1	SiO	Si1	1	0.0	28.0850
342	opls_808	1	SiO	O05	1	0.0	15.9990
343	opls_808	1	SiO	O06	1	0.0	15.9990
344	opls_808	1	SiO	O08	1	0.0	15.9990
345	opls_800	1	SiO	Si2	1	0.0	28.0850
346	opls_809	1	SiO	O13	1	0.0	15.9990
347	opls_809	1	SiO	O14	1	0.0	15.9990
348	opls_808	1	SiO	O0C	1	0.0	15.9990
349	opls_800	1	SiO	Si3	1	0.0	28.0850
350	opls_808	1	SiO	O09	1	0.0	15.9990
351	opls_808	1	SiO	O0F	1	0.0	15.9990
352	opls_800	1	SiO	Si4	1	0.0	28.0850
353	opls_808	1	SiO	O0H	1	0.0	15.9990
354	opls_800	1	SiO	Si5	1	0.0	28.0850
355	opls_819	1	SiO	H0J	1	0.0	1.0080
356	opls_820	1	SiO	H0K	1	0.0	1.0080
357	opls_808	1	SiO	O10	1	0.0	15.9990
358	opls_808	1	SiO	O0N	1	0.0	15.9990
359	opls_800	1	SiO	Si6	1	0.0	28.0850
360	opls_808	1	SiO	O0P	1	0.0	15.9990
361	opls_800	1	SiO	Si7	1	0.0	28.0850
362	opls_826	1	SiO	H0R	1	0.0	1.0080
363	opls_808	1	SiO	H0S	1	0.0	1.0080
364	opls_808	1	SiO	O11	1	0.0	15.9990
365	opls_800	1	SiO	Si0	1	0.0	28.0850
366	opls_809	1	SiO	O0X	1	0.0	15.9990
367	opls_809	1	SiO	O11	1	0.0	15.9990
368	opls_808	1	SiO	O04	1	0.0	15.9990
369	opls_800	1	SiO	Si1	1	0.0	28.0850
370	opls_808	1	SiO	O05	1	0.0	15.9990
371	opls_808	1	SiO	O06	1	0.0	15.9990
372	opls_808	1	SiO	O08	1	0.0	15.9990
373	opls_800	1	SiO	Si2	1	0.0	28.0850
374	opls_809	1	SiO	O13	1	0.0	15.9990
375	opls_809	1	SiO	O14	1	0.0	15.9990
376	opls_808	1	SiO	O0C	1	0.0	15.9990
377	opls_800	1	SiO	Si3	1	0.0	28.0850
378	opls_808	1	SiO	O09	1	0.0	15.9990
379	opls_808	1	SiO	O0F	1	0.0	15.9990
380	opls_800	1	SiO	Si4	1	0.0	28.0850
381	opls_808	1	SiO	O0H	1	0.0	15.9990
382	opls_800	1	SiO	Si5	1	0.0	28.0850
383	opls_819	1	SiO	H0J	1	0.0	1.0080
384	opls_820	1	SiO	H0K	1	0.0	1.0080
385	opls_808	1	SiO	O10	1	0.0	15.9990
386	opls_808	1	SiO	O0N	1	0.0	15.9990
387	opls_800	1	SiO	Si6	1	0.0	28.0850
388	opls_808	1	SiO	O0P	1	0.0	15.9990
389	opls_800	1	SiO	Si7	1	0.0	28.0850
390	opls_826	1	SiO	H0R	1	0.0	1.0080
391	opls_808	1	SiO	H0S	1	0.0	1.0080
392	opls_808	1	SiO	O11	1	0.0	15.9990
393	opls_800	1	SiO	Si0	1	0.0	28.0850
394	opls_809	1	SiO	O0X	1	0.0	15.9990
395	opls_809	1	SiO	O11	1	0.0	15.9990
396	opls_808	1	SiO	O04	1	0.0	15.9990
397	opls_800	1	SiO	Si1	1	0.0	28.0850
398	opls_808	1	SiO	O05	1	0.0	15.9990
399	opls_808	1	SiO	O06	1	0.0	15.9990
400	opls_808	1	SiO	O08	1	0.0	15.9990
401	opls_800	1	SiO	Si2	1	0.0	28.0850
402	opls_809	1	SiO	O13	1	0.0	15.9990
403	opls_809	1	SiO	O14	1	0.0	15.9990
404	opls_808	1	SiO	O0C	1	0.0	15.9990
405	opls_800	1	SiO	Si3	1	0.0	28.0850
406	opls_808	1	SiO	O09	1	0.0	15.9990
407	opls_808	1	SiO	O0F	1	0.0	15.9990
408	opls_800	1	SiO	Si4	1	0.0	28.0850
409	opls_808	1	SiO	O0H	1	0.0	15.9990
410	opls_800	1	SiO	Si5	1	0.0	28.0850
411	opls_819	1	SiO	H0J	1	0.0	1.0080
412	opls_820	1	SiO	H0K	1	0.0	1.0080
413	opls_808	1	SiO	O10	1	0.0	15.9990
414	opls_808	1	SiO	O0N	1	0.0	15.9990
415	opls_800	1	SiO	Si6	1	0.0	28.0850
416	opls_808	1	SiO	O0P	1	0.0	15.9990
417	opls_800	1	SiO	Si7	1	0.0	28.0850
418	opls_826	1	SiO	H0R	1	0.0	1.0080
419	opls_808	1	SiO	H0S	1	0.0	1.0080
420	opls_808	1	SiO	O11	1	0.0	15.9990
421	opls_800	1	SiO	Si0	1	0.0	28.0850
422	opls_809	1	SiO	O0X	1	0.0	15.9990
423	opls_809	1	SiO	O11	1	0.0	15.9990
424	opls_808	1	SiO	O04	1	0.0	15.9990
425	opls_800	1	SiO	Si1	1	0.0	28.0850
426	opls_808	1	SiO	O05	1	0.0	15.9990
427	opls_808	1	SiO	O06	1	0.0	15.9990
428	opls_808	1	SiO	O08	1	0.0	15.9990
429	opls_800	1	SiO	Si2	1	0.0	28.0850
430	opls_809	1	SiO	O13	1	0.0	15.9990
431	opls_809	1	SiO	O14	1	0.0	15.9990
432	opls_808	1	SiO	O0C	1	0.0	15.9990
433	opls_800	1	SiO	Si3	1	0.0	28.0850
434	opls_808	1	SiO	O09	1	0.0	15.9990
435	opls_808	1	SiO	O0F	1	0.0	15.9990
436	opls_800	1	SiO	Si4	1	0.0	28.0850
437	opls_808	1	SiO	O0H	1	0.0	15.9990
438	opls_800	1	SiO	Si5	1	0.0	28.0850
439	opls_819	1	SiO	H0J	1	0.0	1.0080
440	opls_820	1	SiO	H0K	1	0.0	1.0080
441	opls_808	1	SiO	O10	1	0.0	15.9990
442	opls_808	1	SiO	O0N	1	0.0	15.9990
443	opls_800	1	SiO	Si6	1	0.0	28.0850
444	opls_808	1	SiO	O0P	1	0.0	15.9990
445	opls_800	1	SiO	Si7	1	0.0	28.0850
446	opls_826	1	SiO	H0R	1	0.0	1.0080
447	opls_808	1	SiO	H0S	1	0.0	1.0080
448	opls_808	1	SiO	O11	1	0.0	15.9990
449	opls_800	1	SiO	Si0	1	0.0	28.0850
450	opls_809	1	SiO	O0X	1	0.0	15.9990
451	opls_809	1	SiO	O11	1	0.0	15.9990
452	opls_808	1	SiO	O04	1	0.0	15.9990
453	opls_800	1	SiO	Si1	1	0.0	28.0850
454	opls_808	1	SiO	O05	1	0.0	15.9990
455	opls_808	1	SiO	O06	1	0.0	15.9990
456	opls_808	1	SiO	O08	1	0.0	15.9990
457	opls_800	1	SiO	Si2	1	0.0	28.0850
458	opls_809	1	SiO	O13	1	0.0	15.9990
459	opls_809	1	SiO	O14	1	0.0	15.9990
460	opls_808	1	SiO	O0C	1	0.0	15.9990
461	opls_800	1	SiO	Si3	1	0.0	28.0850
462	opls_808	1	SiO	O09	1	0.0	15.9990
463	opls_808	1	SiO	O0F	1	0.0	15.9990
464	opls_800	1	SiO	Si4	1	0.0	28.0850
465	opls_808	1	SiO	O0H	1	0.0	15.9990
466	opls_800	1	SiO	Si5	1	0.0	28.0850
467	opls_819	1	SiO	H0J	1	0.0	1.0080
468	opls_820	1	SiO	H0K	1	0.0	1.0080
469	opls_808	1	SiO	O10	1	0.0	15.9990
470	opls_808	1	SiO	O0N	1	0.0	15.9990
471	opls_800	1	SiO	Si6	1	0.0	28.0850
472	opls_808	1	SiO	O0P	1	0.0	15.9990
473	opls_800	1	SiO	Si7	1	0.0	28.0850
474	opls_826	1	SiO	H0R	1	0.0	1.0080
475	opls_808	1	SiO	H0S	1	0.0	1.0080
476	opls_808	1	SiO	O11	1	0.0	15.9990
477	opls_800	1	SiO	Si0	1	0.0	28.0850
478	opls_809	1	SiO	O0X	1	0.0	15.9990
479	opls_809	1	SiO	O11	1	0.0	15.9990
480	opls_808	1	SiO	O04	1	0.0	15.9990
481	opls_800	1	SiO	Si1	1	0.0	28.0850
482	opls_808	1	SiO	O05	1	0.0	15.9990
483	opls_808	1	SiO	O06	1	0.0	15.9990
484	opls_808	1	SiO	O08	1	0.0	15.9990
485	opls_800	1	SiO	Si2	1	0.0	28.0850
486	opls_809	1	SiO	O13	1	0.0	15.9990
487	opls_809	1	SiO	O14	1	0.0	15.9990
488	opls_808	1	SiO	O0C	1	0.0	15.9990
489	opls_800	1	SiO	Si3	1	0.0	28.0850
490	opls_808	1	SiO	O09	1	0.0	15.9990
491	opls_808	1	SiO	O0F	1	0.0	15.9990
492	opls_800	1	SiO	Si4	1	0.0	28.0850
493	opls_808	1	SiO	O0H	1	0.0	15.9990
494	opls_800	1	SiO	Si5	1	0.0	28.0850
495	opls_819	1	SiO	H0J	1	0.0	1.0080
496	opls_820	1	SiO	H0K	1	0.0	1.0080
497	opls_808	1	SiO	O10	1	0.0	15.9990
498	opls_808	1	SiO	O0N	1	0.0	15.9990
499	opls_800	1	SiO	Si6	1	0.0	28.0850
500	opls_808	1	SiO	O0P	1	0.0	15.9990
501	opls_800	1	SiO	Si7	1	0.0	28.0850
502	opls_826	1	SiO	H0R	1	0.0	1.0080
503	opls_808	1	SiO	H0S	1	0.0	1.0080
504	opls_808	1	SiO	O11	1	0.0	15.9990
505	opls_800	1	SiO	Si0	1	0.0	28.0850
506	opls_809	1	SiO	O0X	1	0.0	15.9990
507	opls_809	1	SiO	O11	1	0.0	15.9990
508	opls_808	1	SiO	O04	1	0.0	15.9990
509	opls_800	1	SiO	Si1	1	0.0	28.0850
510	opls_808	1	SiO	O05	1	0.0	15.9990
511	opls_808	1	SiO	O06	1	0.0	15.9990
512	opls_808	1	SiO	O08	1	0.0	15.9990
513	opls_800	1	SiO	Si2	1	0.0	28.0850
514	opls_809	1	SiO	O13	1	0.0	15.9990
515	opls_809	1	SiO	O14	1	0.0	15.9990
516	opls_808	1	SiO	O0C	1	0.0	15.9990
517	opls_800	1	SiO	Si3	1	0.0	28.0850
518	opls_808	1	SiO	O09	1	0.0	15.9990
519	opls_808	1	SiO	O0F	1	0.0	15.9990
520	opls_800	1	SiO	Si4	1	0.0	28.0850
521	opls_808	1	SiO	O0H	1	0.0	15.9990
522	opls_800	1	SiO	Si5	1	0.0	28.0850
523	opls_819	1	SiO	H0J	1	0.0	1.0080
524	opls_820	1	SiO	H0K	1	0.0	1.0080
525	opls_808	1	SiO	O10	1	0.0	15.9990
526	opls_808	1	SiO	O0N	1	0.0	15.9990
527	opls_800	1	SiO	Si6	1	0.0	28.0850
528	opls_808	1	SiO	O0P	1	0.0	15.9990
529	opls_800	1	SiO	Si7	1	0.0	28.0850
530	opls_826	1	SiO	H0R	1	0.0	1.0080
531	opls_808	1	SiO	H0S	1	0.0	1.0080
532	opls_808	1	SiO	O11	1	0.0	15.9990
533	opls_800	1	SiO	Si0	1	0.0	28.0850
534	opls_809	1	SiO	O0X	1	0.0	15.9990
535	opls_809	1	SiO	O11	1	0.0	15.9990
536	opls_808	1	SiO	O04	1	0.0	15.9990
537	opls_800	1	SiO	Si1	1	0.0	28.0850
538	opls_808	1	SiO	O05	1	0.0	15.9990
539	opls_808	1	SiO	O06	1	0.0	15.9990
540	opls_808	1	SiO	O08	1	0.0	15.9990
541	opls_800	1	SiO	Si2	1	0.0	28.0850
542	opls_809	1	SiO	O13	1	0.0	15.9990
543	opls_809	1	SiO	O14	1	0.0	15.9990
544	opls_808	1	SiO	O0C	1	0.0	15.9990
545	opls_800	1	SiO	Si3	1	0.0	28.0850
546	opls_808	1	SiO	O09	1	0.0	15.9990
547	opls_808	1	SiO	O0F	1	0.0	15.9990
548	opls_800	1	SiO	Si4	1	0.0	28.0850
549	opls_808	1	SiO	O0H	1	0.0	15.9990
550	opls_800	1	SiO	Si5	1	0.0	28.0850
551	opls_819	1	SiO	H0J	1	0.0	1.0080
552	opls_820	1	SiO	H0K	1	0.0	1.0080
553	opls_808	1	SiO	O10	1	0.0	15.9990
554	opls_808	1	SiO	O0N	1	0.0	15.9990
555	opls_800	1	SiO	Si6	1	0.0	28.0850
556	opls_808	1	SiO	O0P	1	0.0	15.9990
557	opls_800	1	SiO	Si7	1	0.0	28.0850
558	opls_826	1	SiO	H0R	1	0.0	1.0080
559	opls_808	1	SiO	H0S	1	0.0	1.0080
560	opls_808	1	SiO	O11	1	0.0	15.9990
561	opls_800	1	SiO	Si0	1	0.0	28.0850
562	opls_809	1	SiO	O0X	1	0.0	15.9990
563	opls_809	1	SiO	O11	1	0.0	15.9990
564	opls_808	1	SiO	O04	1	0.0	15.9990
565	opls_800	1	SiO	Si1	1	0.0	28.0850
566	opls_808	1	SiO	O05	1	0.0	15.9990
567	opls_808	1	SiO	O06	1	0.0	15.9990
568	opls_808	1	SiO	O08	1	0.0	15.9990
569	opls_800	1	SiO	Si2	1	0.0	28.0850
570	opls_809	1	SiO	O13	1	0.0	15.9990
571	opls_809	1	SiO	O14	1	0.0	15.9990
572	opls_808	1	SiO	O0C	1	0.0	15.9990
573	opls_800	1	SiO	Si3	1	0.0	28.0850
574	opls_808	1	SiO	O09	1	0.0	15.9990
575	opls_808	1	SiO	O0F	1	0.0	15.9990
576	opls_800	1	SiO	Si4	1	0.0	28.0850
577	opls_808	1	SiO	O0H	1	0.0	15.9990
578	opls_800	1	SiO	Si5	1	0.0	28.0850
579	opls_819	1	SiO	H0J	1	0.0	1.0080
580	opls_820	1	SiO	H0K	1	0.0	1.0080
581	opls_808	1	SiO	O10	1	0.0	15.9990
582	opls_808	1	SiO	O0N	1	0.0	15.9990
583	opls_800	1	SiO	Si6	1	0.0	28.0850
584	opls_808	1	SiO	O0P	1	0.0	15.9990
585	opls_800	1	SiO	Si7	1	0.0	28.0850
586	opls_826	1	SiO	H0R	1	0.0	1.0080
587	opls_808	1	SiO	H0S	1	0.0	1.0080
588	opls_808	1	SiO	O11	1	0.0	15.9990
589	opls_800	1	SiO	Si0	1	0.0	28.0850
590	opls_809	1	SiO	O0X	1	0.0	15.9990
591	opls_809	1	SiO	O11	1	0.0	15.9990
592	opls_808	1	SiO	O04	1	0.0	15.9990
593	opls_800	1	SiO	Si1	1	0.0	28.0850
594	opls_808	1	SiO	O05	1	0.0	15.9990
595	opls_808	1	SiO	O06	1	0.0	15.9990
596	opls_808	1	SiO	O08	1	0.0	15.9990
597	opls_800	1	SiO	Si2	1	0.0	28.0850
598	opls_809	1	SiO	O13	1	0.0	15.9990
599	opls_809	1	SiO	O14	1	0.0	15.9990
600	opls_808	1	SiO	O0C	1	0.0	15.9990
601	opls_800	1	SiO	Si3	1	0.0	28.0850
602	opls_808	1	SiO	O09	1	0.0	15.9990
603	opls_808	1	SiO	O0F	1	0.0	15.9990
604	opls_800	1	SiO	Si4	1	0.0	28.0850
605	opls_808	1	SiO	O0H	1	0.0	15.9990
606	opls_800	1	SiO	Si5	1	0.0	28.0850
607	opls_819	1	SiO	H0J	1	0.0	1.0080
608	opls_820	1	SiO	H0K	1	0.0	1.0080
609	opls_808	1	SiO	O10	1	0.0	15.9990
610	opls_808	1	SiO	O0N	1	0.0	15.9990
611	opls_800	1	SiO	Si6	1	0.0	28.0850
612	opls_808	1	SiO	O0P	1	0.0	15.9990
613	opls_800	1	SiO	Si7	1	0.0	28.0850
614	opls_826	1	SiO	H0R	1	0.0	1.0080
615	opls_808	1	SiO	H0S	1	0.0	1.0080
616	opls_808	1	SiO	O11	1	0.0	15.9990
617	opls_800	1	SiO	Si0	1	0.0	28.0850
618	opls_809	1	SiO	O0X	1	0.0	15.9990
619	opls_809	1	SiO	O11	1	0.0	15.9990
620	opls_808	1	SiO	O04	1	0.0	15.9990
621	opls_800	1	SiO	Si1	1	0.0	28.0850
622	opls_808	1	SiO	O05	1	0.0	15.9990
623	opls_808	1	SiO	O06	1	0.0	15.9990
624	opls_808	1	SiO	O08	1	0.0	15.9990
625	opls_800	1	SiO	Si2	1	0.0	28.0850
626	opls_809	1	SiO	O13	1	0.0	15.9990
627	opls_809	1	SiO	O14	1	0.0	15.9990
628	opls_808	1	SiO	O0C	1	0.0	15.9990
629	opls_800	1	SiO	Si3	1	0.0	28.0850
630	opls_808	1	SiO	O09	1	0.0	15.9990
631	opls_808	1	SiO	O0F	1	0.0	15.9990
632	opls_800	1	SiO	Si4	1	0.0	28.0850
633	opls_808	1	SiO	O0H	1	0.0	15.9990
634	opls_800	1	SiO	Si5	1	0.0	28.0850
635	opls_819	1	SiO	H0J	1	0.0	1.0080
636	opls_820	1	SiO	H0K	1	0.0	1.0080
637	opls_808	1	SiO	O10	1	0.0	15.9990
638	opls_808	1	SiO	O0N	1	0.0	15.9990
639	opls_800	1	SiO	Si6	1	0.0	28.0850
640	opls_808	1	SiO	O0P	1	0.0	15.9990
641	opls_800	1	SiO	Si7	1	0.0	28.0850
642	opls_826	1	SiO	H0R	1	0.0	1.0080
643	opls_808	1	SiO	H0S	1	0.0	1.0080
644	opls_808	1	SiO	O11	1	0.0	15.9990
645	opls_800	1	SiO	Si0	1	0.0	28.0850
646	opls_809	1	SiO	O0X	1	0.0	15.9990
647	opls_809	1	SiO	O11	1	0.0	15.9990
648	opls_808	1	SiO	O04	1	0.0	15.9990
649	opls_800	1	SiO	Si1	1	0.0	28.0850
650	opls_808	1	SiO	O05	1	0.0	15.9990
651	opls_808	1	SiO	O06	1	0.0	15.9990
652	opls_808	1	SiO	O08	1	0.0	15.9990
653	opls_800	1	SiO	Si2	1	0.0	28.0850
654	opls_809	1	SiO	O13	1	0.0	15.9990
655	opls_809	1	SiO	O14	1	0.0	15.9990
656	opls_808	1	SiO	O0C	1	0.0	15.9990
657	opls_800	1	SiO	Si3	1	0.0	28.0850
658	opls_808	1	SiO	O09	1	0.0	15.9990
659	opls_808	1	SiO	O0F	1	0.0	15.9990
660	opls_800	1	SiO	Si4	1	0.0	28.0850
661	opls_808	1	SiO	O0H	1	0.0	15.9990
662	opls_800	1	SiO	Si5	1	0.0	28.0850
663	opls_819	1	SiO	H0J	1	0.0	1.0080
664	opls_820	1	SiO	H0K	1	0.0	1.0080
665	opls_808	1	SiO	O10	1	0.0	15.9990
666	opls_808	1	SiO	O0N	1	0.0	15.9990
667	opls_800	1	SiO	Si6	1	0.0	28.0850
668	opls_808	1	SiO	O0P	1	0.0	15.9990
669	opls_800	1	SiO	Si7	1	0.0	28.0850
670	opls_826	1	SiO	H0R	1	0.0	1.0080
671	opls_808	1	SiO	H0S	1	0.0	1.0080
672	opls_808	1	SiO	O11	1	0.0	15.9990
673	opls_800	1	SiO	Si0	1	0.0	28.0850
674	opls_809	1	SiO	O0X	1	0.0	15.9990
675	opls_809	1	SiO	O11	1	0.0	15.9990
676	opls_808	1	SiO	O04	1	0.0	15.9990
677	opls_800	1	SiO	Si1	1	0.0	28.0850
678	opls_808	1	SiO	O05	1	0.0	15.9990
679	opls_808	1	SiO	O06	1	0.0	15.9990
680	opls_808	1	SiO	O08	1	0.0	15.9990
681	opls_800	1	SiO	Si2	1	0.0	28.0850
682	opls_809	1	SiO	O13	1	0.0	15.9990
683	opls_809	1	SiO	O14	1	0.0	15.9990
684	opls_808	1	SiO	O0C	1	0.0	15.9990
685	opls_800	1	SiO	Si3	1	0.0	28.0850
686	opls_808	1	SiO	O09	1	0.0	15.9990
687	opls_808	1	SiO	O0F	1	0.0	15.9990
688	opls_800	1	SiO	Si4	1	0.0	28.0850
689	opls_808	1	SiO	O0H	1	0.0	15.9990
690	opls_800	1	SiO	Si5	1	0.0	28.0850
691	opls_819	1	SiO	H0J	1	0.0	1.0080
692	opls_820	1	SiO	H0K	1	0.0	1.0080
693	opls_808	1	SiO	O10	1	0.0	15.9990
694	opls_808	1	SiO	O0N	1	0.0	15.9990
695	opls_800	1	SiO	Si6	1	0.0	28.0850
696	opls_808	1	SiO	O0P	1	0.0	15.9990
697	opls_800	1	SiO	Si7	1	0.0	28.0850
698	opls_826	1	SiO	H0R	1	0.0	1.0080
699	opls_808	1	SiO	H0S	1	0.0	1.0080
700	opls_808	1	SiO	O11	1	0.0	15.9990
701	opls_800	1	SiO	Si0	1	0.0	28.0850
702	opls_809	1	SiO	O0X	1	0.0	15.9990
703	opls_809	1	SiO	O11	1	0.0	15.9990
704	opls_808	1	SiO	O04	1	0.0	15.9990
705	opls_800	1	SiO	Si1	1	0.0	28.0850
706	opls_808	1	SiO	O05	1	0.0	15.9990
707	opls_808	1	SiO	O06	1	0.0	15.9990
708	opls_808	1	SiO	O08	1	0.0	15.9990
709	opls_800	1	SiO	Si2	1	0.0	28.0850
710	opls_809	1	SiO	O13	1	0.0	15.9990
711	opls_809	1	SiO	O14	1	0.0	15.9990
712	opls_808	1	SiO	O0C	1	0.0	15.9990
713	opls_800	1	SiO	Si3	1	0.0	28.0850
714	opls_808	1	SiO	O09	1	0.0	15.9990
715	opls_808	1	SiO	O0F	1	0.0	15.9990
716	opls_800	1	SiO	Si4	1	0.0	28.0850
717	opls_808	1	SiO	O0H	1	0.0	15.9990
718	opls_800	1	SiO	Si5	1	0.0	28.0850
719	opls_819	1	SiO	H0J	1	0.0	1.0080
720	opls_820	1	SiO	H0K	1	0.0	1.0080
721	opls_808	1	SiO	O10	1	0.0	15.9990
722	opls_808	1	SiO	O0N	1	0.0	15.9990
723	opls_800	1	SiO	Si6	1	0.0	28.0850
724	opls_808	1	SiO	O0P	1	0.0	15.9990
725	opls_800	1	SiO	Si7	1	0.0	28.0850
726	opls_826	1	SiO	H0R	1	0.0	1.0080
727	opls_808	1	SiO	H0S	1	0.0	1.0080
728	opls_808	1	SiO	O11	1	0.0	15.9990
729	opls_800	1	SiO	Si0	1	0.0	28.0850
730	opls_809	1	SiO	O0X	1	0.0	15.9990
731	opls_809	1	SiO	O11	1	0.0	15.9990
732	opls_808	1	SiO	O04	1	0.0	15.9990
733	opls_800	1	SiO	Si1	1	0.0	28.0850
734	opls_808	1	SiO	O05	1	0.0	15.9990
735	opls_808	1	SiO	O06	1	0.0	15.9990
736	opls_808	1	SiO	O08	1	0.0	15.9990
737	opls_800	1	SiO	Si2	1	0.0	28.0850
738	opls_809	1	SiO	O13	1	0.0	15.9990
739	opls_809	1	SiO	O14	1	0.0	15.9990
740	opls_808	1	SiO	O0C	1	0.0	15.9990
741	opls_800	1	SiO	Si3	1	0.0	28.0850
742	opls_808	1	SiO	O09	1	0.0	15.9990
743	opls_808	1	SiO	O0F	1	0.0	15.9990
744	opls_800	1	SiO	Si4	1	0.0	28.0850
745	opls_808	1	SiO	O0H	1	0.0	15.9990
746	opls_800	1	SiO	Si5	1	0.0	28.0850
747	opls_819	1	SiO	H0J	1	0.0	1.0080
748	opls_820	1	SiO	H0K	1	0.0	1.0080
749	opls_808	1	SiO	O10	1	0.0	15.9990
750	opls_808	1	SiO	O0N	1	0.0	15.9990
751	opls_800	1	SiO	Si6	1	0.0	28.0850
752	opls_808	1	SiO	O0P	1	0.0	15.9990
753	opls_800	1	SiO	Si7	1	0.0	28.0850
754	opls_826	1	SiO	H0R	1	0.0	1.0080
755	opls_808	1	SiO	H0S	1	0.0	1.0080
756	opls_808	1	SiO	O11	1	0.0	15.9990
757	opls_800	1	SiO	Si0	1	0.0	28.0850
758	opls_809	1	SiO	O0X	1	0.0	15.9990
759	opls_809	1	SiO	O11	1	0.0	15.9990
760	opls_808	1	SiO	O04	1	0.0	15.9990
761	opls_800	1	SiO	Si1	1	0.0	28.0850
762	opls_808	1	SiO	O05	1	0.0	15.9990
763	opls_808	1	SiO	O06	1	0.0	15.9990
764	opls_808	1	SiO	O08	1	0.0	15.9990
765	opls_800	1	SiO	Si2	1	0.0	28.0850
766	opls_809	1	SiO	O13	1	0.0	15.9990
767	opls_809	1	SiO	O14	1	0.0	15.9990
768	opls_808	1	SiO	O0C	1	0.0	15.9990
769	opls_800	1	SiO	Si3	1	0.0	28.0850
770	opls_808	1	SiO	O09	1	0.0	15.9990
771	opls_808	1	SiO	O0F	1	0.0	15.9990
772	opls_800	1	SiO	Si4	1	0.0	28.0850
773	opls_808	1	SiO	O0H	1	0.0	15.9990
774	opls_800	1	SiO	Si5	1	0.0	28.0850
775	opls_819	1	SiO	H0J	1	0.0	1.0080
776	opls_820	1	SiO	H0K	1	0.0	1.0080
777	opls_808	1	SiO	O10	1	0.0	15.9990
778	opls_808	1	SiO	O0N	1	0.0	15.9990
779	opls_800	1	SiO	Si6	1	0.0	28.0850
780	opls_808	1	SiO	O0P	1	0.0	15.9990
781	opls_800	1	SiO	Si7	1	0.0	28.0850
782	opls_826	1	SiO	H0R	1	0.0	1.0080
783	opls_808	1	SiO	H0S	1	0.0	1.0080
784	opls_808	1	SiO	O11	1	0.0	15.9990
785	opls_800	1	SiO	Si0	1	0.0	28.0850
786	opls_809	1	SiO	O0X	1	0.0	15.9990
787	opls_809	1	SiO	O11	1	0.0	15.9990
788	opls_808	1	SiO	O04	1	0.0	15.9990
789	opls_800	1	SiO	Si1	1	0.0	28.0850
790	opls_808	1	SiO	O05	1	0.0	15.9990
791	opls_808	1	SiO	O06	1	0.0	15.9990
792	opls_808	1	SiO	O08	1	0.0	15.9990
793	opls_800	1	SiO	Si2	1	0.0	28.0850
794	opls_809	1	SiO	O13	1	0.0	15.9990
795	opls_809	1	SiO	O14	1	0.0	15.9990
796	opls_808	1	SiO	O0C	1	0.0	15.9990
797	opls_800	1	SiO	Si3	1	0.0	28.0850
798	opls_808	1	SiO	O09	1	0.0	15.9990
799	opls_808	1	SiO	O0F	1	0.0	15.9990
800	opls_800	1	SiO	Si4	1	0.0	28.0850
801	opls_808	1	SiO	O0H	1	0.0	15.9990
802	opls_800	1	SiO	Si5	1	0.0	28.0850
803	opls_819	1	SiO	H0J	1	0.0	1.0080
804	opls_820	1	SiO	H0K	1	0.0	1.0080
805	opls_808	1	SiO	O10	1	0.0	15.9990
806	opls_808	1	SiO	O0N	1	0.0	15.9990
807	opls_800	1	SiO	Si6	1	0.0	28.0850
808	opls_808	1	SiO	O0P	1	0.0	15.9990
809	opls_800	1	SiO	Si7	1	0.0	28.0850
810	opls_826	1	SiO	H0R	1	0.0	1.0080
811	opls_808	1	SiO	H0S	1	0.0	1.0080
812	opls_808	1	SiO	O11	1	0.0	15.9990
813	opls_800	1	SiO	Si0	1	0.0	28.0850
814	opls_809	1	SiO	O0X	1	0.0	15.9990
815	opls_809	1	SiO	O11	1	0.0	15.9990
816	opls_808	1	SiO	O04	1	0.0	15.9990
817	opls_800	1	SiO	Si1	1	0.0	28.0850
818	opls_808	1	SiO	O05	1	0.0	15.9990
819	opls_808	1	SiO	O06	1	0.0	15.9990
820	opls_808	1	SiO	O08	1	0.0	15.9990
821	opls_800	1	SiO	Si2	1	0.0	28.0850
822	opls_809	1	SiO	O13	1	0.0	15.9990
823	opls_809	1	SiO	O14	1	0.0	15.9990
824	opls_808	1	SiO	O0C	1	0.0	15.9990
825	opls_800	1	SiO	Si3	1	0.0	28.0850
826	opls_808	1	SiO	O09	1	0.0	15.9990
827	opls_808	1	SiO	O0F	1	0.0	15.9990
828	opls_800	1	SiO	Si4	1	0.0	28.0850
829	opls_808	1	SiO	O0H	1	0.0	15.9990
830	opls_800	1	SiO	Si5	1	0.0	28.0850
831	opls_819	1	SiO	H0J	1	0.0	1.0080
832	opls_820	1	SiO	H0K	1	0.0	1.0080
833	opls_808	1	SiO	O10	1	0.0	15.9990
834	opls_808	1	SiO	O0N	1	0.0	15.9990
835	opls_800	1	SiO	Si6	1	0.0	28.0850
836	opls_808	1	SiO	O0P	1	0.0	15.9990
837	opls_800	1	SiO	Si7	1	0.0	28.0850
838	opls_826	1	SiO	H0R	1	0.0	1.0080
839	opls_808	1	SiO	H0S	1	0.0	1.0080
840	opls_808	1	SiO	O11	1	0.0	15.9990
841	opls_800	1	SiO	Si0	1	0.0	28.0850
842	opls_809	1	SiO	O0X	1	0.0	15.9990
843	opls_809	1	SiO	O11	1	0.0	15.9990
844	opls_808	1	SiO	O04	1	0.0	15.9990
845	opls_800	1	SiO	Si1	1	0.0	28.0850
846	opls_808	1	SiO	O05	1	0.0	15.9990
847	opls_808	1	SiO	O06	1	0.0	15.9990
848	opls_808	1	SiO	O08	1	0.0	15.9990
849	opls_800	1	SiO	Si2	1	0.0	28.0850
850	opls_809	1	SiO	O13	1	0.0	15.9990
851	opls_809	1	SiO	O14	1	0.0	15.9990
852	opls_808	1	SiO	O0C	1	0.0	15.9990
853	opls_800	1	SiO	Si3	1	0.0	28.0850
854	opls_808	1	SiO	O09	1	0.0	15.9990
855	opls_808	1	SiO	O0F	1	0.0	15.9990
856	opls_800	1	SiO	Si4	1	0.0	28.0850
857	opls_808	1	SiO	O0H	1	0.0	15.9990
858	opls_800	1	SiO	Si5	1	0.0	28.0850
859	opls_819	1	SiO	H0J	1	0.0	1.0080
860	opls_820	1	SiO	H0K	1	0.0	1.0080
861	opls_808	1	SiO	O10	1	0.0	15.9990
862	opls_808	1	SiO	O0N	1	0.0	15.9990
863	opls_800	1	SiO	Si6	1	0.0	28.0850
864	opls_808	1	SiO	O0P	1	0.0	15.9990
865	opls_800	1	SiO	Si7	1	0.0	28.0850
866	opls_826	1	SiO	H0R	1	0.0	1.0080
867	opls_808	1	SiO	H0S	1	0.0	1.0080
868	opls_808	1	SiO	O11	1	0.0	15.9990
869	opls_800	1	SiO	Si0	1	0.0	28.0850
870	opls_809	1	SiO	O0X	1	0.0	15.9990
871	opls_809	1	SiO	O11	1	0.0	15.9990
872	opls_808	1	SiO	O04	1	0.0	15.9990
873	opls_800	1	SiO	Si1	1	0.0	28.0850
874	opls_808	1	SiO	O05	1	0.0	15.9990
875	opls_808	1	SiO	O06	1	0.0	15.9990
876	opls_808	1	SiO	O08	1	0.0	15.9990
877	opls_800	1	SiO	Si2	1	0.0	28.0850
878	opls_809	1	SiO	O13	1	0.0	15.9990
879	opls_809	1	SiO	O14	1	0.0	15.9990
880	opls_808	1	SiO	O0C	1	0.0	15.9990
881	opls_800	1	SiO	Si3	1	0.0	28.0850
882	opls_808	1	SiO	O09	1	0.0	15.9990
883	opls_808	1	SiO	O0F	1	0.0	15.9990
884	opls_800	1	SiO	Si4	1	0.0	28.0850
885	opls_808	1	SiO	O0H	1	0.0	15.9990
886	opls_800	1	SiO	Si5	1	0.0	28.0850
887	opls_819	1	SiO	H0J	1	0.0	1.0080
888	opls_820	1	SiO	H0K	1	0.0	1.0080
889	opls_808	1	SiO	O10	1	0.0	15.9990
890	opls_808	1	SiO	O0N	1	0.0	15.9990
891	opls_800	1	SiO	Si6	1	0.0	28.0850
892	opls_808	1	SiO	O0P	1	0.0	15.9990
893	opls_800	1	SiO	Si7	1	0.0	28.0850
894	opls_826	1	SiO	H0R	1	0.0	1.0080
895	opls_808	1	SiO	H0S	1	0.0	1.0080
896	opls_808	1	SiO	O11	1	0.0	15.9990
897	opls_800	1	SiO	Si0	1	0.0	28.0850
898	opls_809	1	SiO	O0X	1	0.0	15.9990
899	opls_809	1	SiO	O11	1	0.0	15.9990
900	opls_808	1	SiO	O04	1	0.0	15.9990
901	opls_800	1	SiO	Si1	1	0.0	28.0850
902	opls_808	1	SiO	O05	1	0.0	15.9990
903	opls_808	1	SiO	O06	1	0.0	15.9990
904	opls_808	1	SiO	O08	1	0.0	15.9990
905	opls_800	1	SiO	Si2	1	0.0	28.0850
906	opls_809	1	SiO	O13	1	0.0	15.9990
907	opls_809	1	SiO	O14	1	0.0	15.9990
908	opls_808	1	SiO	O0C	1	0.0	15.9990
909	opls_800	1	SiO	Si3	1	0.0	28.0850
910	opls_808	1	SiO	O09	1	0.0	15.9990
911	opls_808	1	SiO	O0F	1	0.0	15.9990
912	opls_800	1	SiO	Si4	1	0.0	28.0850
913	opls_808	1	SiO	O0H	1	0.0	15.9990
914	opls_800	1	SiO	Si5	1	0.0	28.0850
915	opls_819	1	SiO	H0J	1	0.0	1.0080
916	opls_820	1	SiO	H0K	1	0.0	1.0080
917	opls_808	1	SiO	O10	1	0.0	15.9990
918	opls_808	1	SiO	O0N	1	0.0	15.9990
919	opls_800	1	SiO	Si6	1	0.0	28.0850
920	opls_808	1	SiO	O0P	1	0.0	15.9990
921	opls_800	1	SiO	Si7	1	0.0	28.0850
922	opls_826	1	SiO	H0R	1	0.0	1.0080
923	opls_808	1	SiO	H0S	1	0.0	1.0080
924	opls_808	1	SiO	O11	1	0.0	15.9990
925	opls_800	1	SiO	Si0	1	0.0	28.0850
926	opls_809	1	SiO	O0X	1	0.0	15.9990
927	opls_809	1	SiO	O11	1	0.0	15.9990
928	opls_808	1	SiO	O04	1	0.0	15.9990
929	opls_800	1	SiO	Si1	1	0.0	28.0850
930	opls_808	1	SiO	O05	1	0.0	15.9990
931	opls_808	1	SiO	O06	1	0.0	15.9990
932	opls_808	1	SiO	O08	1	0.0	15.9990
933	opls_800	1	SiO	Si2	1	0.0	28.0850
934	opls_809	1	SiO	O13	1	0.0	15.9990
935	opls_809	1	SiO	O14	1	0.0	15.9990
936	opls_808	1	SiO	O0C	1	0.0	15.9990
937	opls_800	1	SiO	Si3	1	0.0	28.0850
938	opls_808	1	SiO	O09	1	0.0	15.9990
939	opls_808	1	SiO	O0F	1	0.0	15.9990
940	opls_800	1	SiO	Si4	1	0.0	28.0850
941	opls_808	1	SiO	O0H	1	0.0	15.9990
942	opls_800	1	SiO	Si5	1	0.0	28.0850
943	opls_819	1	SiO	H0J	1	0.0	1.0080
944	opls_820	1	SiO	H0K	1	0.0	1.0080
945	opls_808	1	SiO	O10	1	0.0	15.9990
946	opls_808	1	SiO	O0N	1	0.0	15.9990
947	opls_800	1	SiO	Si6	1	0.0	28.0850
948	opls_808	1	SiO	O0P	1	0.0	15.9990
949	opls_800	1	SiO	Si7	1	0.0	28.0850
950	opls_826	1	SiO	H0R	1	0.0	1.0080
951	opls_808	1	SiO	H0S	1	0.0	1.0080
952	opls_808	1	SiO	O11	1	0.0	15.9990
953	opls_800	1	SiO	Si0	1	0.0	28.0850
954	opls_809	1	SiO	O0X	1	0.0	15.9990
955	opls_809	1	SiO	O11	1	0.0	15.9990
956	opls_808	1	SiO	O04	1	0.0	15.9990
957	opls_800	1	SiO	Si1	1	0.0	28.0850
958	opls_808	1	SiO	O05	1	0.0	15.9990
959	opls_808	1	SiO	O06	1	0.0	15.9990
960	opls_808	1	SiO	O08	1	0.0	15.9990
961	opls_800	1	SiO	Si2	1	0.0	28.0850
962	opls_809	1	SiO	O13	1	0.0	15.9990
963	opls_809	1	SiO	O14	1	0.0	15.9990
964	opls_808	1	SiO	O0C	1	0.0	15.9990
965	opls_800	1	SiO	Si3	1	0.0	28.0850
966	opls_808	1	SiO	O09	1	0.0	15.9990
967	opls_808	1	SiO	O0F	1	0.0	15.9990
968	opls_800	1	SiO	Si4	1	0.0	28.0850
969	opls_808	1	SiO	O0H	1	0.0	15.9990
970	opls_800	1	SiO	Si5	1	0.0	28.0850
971	opls_819	1	SiO	H0J	1	0.0	1.0080
972	opls_820	1	SiO	H0K	1	0.0	1.0080
973	opls_808	1	SiO	O10	1	0.0	15.9990
974	opls_808	1	SiO	O0N	1	0.0	15.9990
975	opls_800	1	SiO	Si6	1	0.0	28.0850
976	opls_808	1	SiO	O0P	1	0.0	15.9990
977	opls_800	1	SiO	Si7	1	0.0	28.0850
978	opls_826	1	SiO	H0R	1	0.0	1.0080
979	opls_808	1	SiO	H0S	1	0.0	1.0080
980	opls_808	1	SiO	O11	1	0.0	15.9990
981	opls_800	1	SiO	Si0	1	0.0	28.0850
982	opls_809	1	SiO	O0X	1	0.0	15.9990
983	opls_809	1	SiO	O11	1	0.0	15.9990
984	opls_808	1	SiO	O04	1	0.0	15.9990
985	opls_800	1	SiO	Si1	1	0.0	28.0850
986	opls_808	1	SiO	O05	1	0.0	15.9990
987	opls_808	1	SiO	O06	1	0.0	15.9990
988	opls_808	1	SiO	O08	1	0.0	15.9990
989	opls_800	1	SiO	Si2	1	0.0	28.0850
990	opls_809	1	SiO	O13	1	0.0	15.9990
991	opls_809	1	SiO	O14	1	0.0	15.9990
992	opls_808	1	SiO	O0C	1	0.0	15.9990
993	opls_800	1	SiO	Si3	1	0.0	28.0850
994	opls_808	1	SiO	O09	1	0.0	15.9990
995	opls_808	1	SiO	O0F	1	0.0	15.9990
996	opls_800	1	SiO	Si4	1	0.0	28.0850
997	opls_808	1	SiO	O0H	1	0.0	15.9990
998	opls_800	1	SiO	Si5	1	0.0	28.0850
999	opls_819	1	SiO	H0J	1	0.0	1.0080
1000	opls_820	1	SiO	H0K	1	0.0	1.0080
1001	opls_808	1	SiO	O10	1	0.0	15.9990
1002	opls_808	1	SiO	O0N	1	0.0	15.9990
1003	opls_800	1	SiO	Si6	1	0.0	28.0850
1004	opls_808	1	SiO	O0P	1	0.0	15.9990
1005	opls_800	1	SiO	Si7	1	0.0	28.0850
1006	opls_826	1	SiO	H0R	1	0.0	1.0080
1007	opls_808	1	SiO	H0S	1	0.0	1.0080
1008	opls_808	1	SiO	O11	1	0.0	15.9990
1009	opls_800	1	SiO	Si0	1	0.0	28.0850
1010	opls_809	1	SiO	O0X	1	0.0	15.9990
1011	opls_809	1	SiO	O11	1	0.0	15.9990
1012	opls_808	1	SiO	O04	1	0.0	15.9990
1013	opls_800	1	SiO	Si1	1	0.0	28.0850
1014	opls_808	1	SiO	O05	1	0.0	15.9990
1015	opls_808	1	SiO	O06	1	0.0	15.9990
1016	opls_808	1	SiO	O08	1	0.0	15.9990
1017	opls_800	1	SiO	Si2	1	0.0	28.0850
1018	opls_809	1	SiO	O13	1	0.0	15.9990
1019	opls_809	1	SiO	O14	1	0.0	15.9990
1020	opls_808	1	SiO	O0C	1	0.0	15.9990
1021	opls_800	1	SiO	Si3	1	0.0	28.0850
1022	opls_808	1	SiO	O09	1	0.0	15.9990
1023	opls_808	1	SiO	O0F	1	0.0	15.9990
1024	opls_800	1	SiO	Si4	1	0.0	28.0850
1025	opls_808	1	SiO	O0H	1	0.0	15.9990
1026	opls_800	1	SiO	Si5	1	0.0	28.0850
1027	opls_819	1	SiO	H0J	1	0.0	1.0080
1028	opls_820	1	SiO	H0K	1	0.0	1.0080
1029	opls_808	1	SiO	O10	1	0.0	15.9990
1030	opls_808	1	SiO	O0N	1	0.0	15.9990
1031	opls_800	1	SiO	Si6	1	0.0	28.0850
1032	opls_808	1	SiO	O0P	1	0.0	15.9990
1033	opls_800	1	SiO	Si7	1	0.0	28.0850
1034	opls_826	1	SiO	H0R	1	0.0	1.0080
1035	opls_808	1	SiO	H0S	1	0.0	1.0080
1036	opls_808	1	SiO	O11	1	0.0	15.9990
1037	opls_800	1	SiO	Si0	1	0.0	28.0850
1038	opls_809	1	SiO	O0X	1	0.0	15.9990
1039	opls_809	1	SiO	O11	1	0.0	15.9990
1040	opls_808	1	SiO	O04	1	0.0	15.9990
1041	opls_800	1	SiO	Si1	1	0.0	28.0850
1042	opls_808	1	SiO	O05	1	0.0	15.9990
1043	opls_808	1	SiO	O06	1	0.0	15.9990
1044	opls_808	1	SiO	O08	1	0.0	15.9990
1045	opls_800	1	SiO	Si2	1	0.0	28.0850
1046	opls_809	1	SiO	O13	1	0.0	15.9990
1047	opls_809	1	SiO	O14	1	0.0	15.9990
1048	opls_808	1	SiO	O0C	1	0.0	15.9990
1049	opls_800	1	SiO	Si3	1	0.0	28.0850
1050	opls_808	1	SiO	O09	1	0.0	15.9990
1051	opls_808	1	SiO	O0F	1	0.0	15.9990
1052	opls_800	1	SiO	Si4	1	0.0	28.0850
1053	opls_808	1	SiO	O0H	1	0.0	15.9990
1054	opls_800	1	SiO	Si5	1	0.0	28.0850
1055	opls_819	1	SiO	H0J	1	0.0	1.0080
1056	opls_820	1	SiO	H0K	1	0.0	1.0080
1057	opls_808	1	SiO	O10	1	0.0	15.9990
1058	opls_808	1	SiO	O0N	1	0.0	15.9990
1059	opls_800	1	SiO	Si6	1	0.0	28.0850
1060	opls_808	1	SiO	O0P	1	0.0	15.9990
1061	opls_800	1	SiO	Si7	1	0.0	28.0850
1062	opls_826	1	SiO	H0R	1	0.0	1.0080
1063	opls_808	1	SiO	H0S	1	0.0	1.0080
1064	opls_808	1	SiO	O11	1	0.0	15.9990
1065	opls_800	1	SiO	Si0	1	0.0	28.0850
1066	opls_809	1	SiO	O0X	1	0.0	15.9990
1067	opls_809	1	SiO	O11	1	0.0	15.9990
1068	opls_808	1	SiO	O04	1	0.0	15.9990
1069	opls_800	1	SiO	Si1	1	0.0	28.0850
1070	opls_808	1	SiO	O05	1	0.0	15.9990
1071	opls_808	1	SiO	O06	1	0.0	15.9990
1072	opls_808	1	SiO	O08	1	0.0	15.9990
1073	opls_800	1	SiO	Si2	1	0.0	28.0850
1074	opls_809	1	SiO	O13	1	0.0	15.9990
1075	opls_809	1	SiO	O14	1	0.0	15.9990
1076	opls_808	1	SiO	O0C	1	0.0	15.9990
1077	opls_800	1	SiO	Si3	1	0.0	28.0850
1078	opls_808	1	SiO	O09	1	0.0	15.9990
1079	opls_808	1	SiO	O0F	1	0.0	15.9990
1080	opls_800	1	SiO	Si4	1	0.0	28.0850
1081	opls_808	1	SiO	O0H	1	0.0	15.9990
1082	opls_800	1	SiO	Si5	1	0.0	28.0850
1083	opls_819	1	SiO	H0J	1	0.0	1.0080
1084	opls_820	1	SiO	H0K	1	0.0	1.0080
1085	opls_808	1	SiO	O10	1	0.0	15.9990
1086	opls_808	1	SiO	O0N	1	0.0	15.9990
1087	opls_800	1	SiO	Si6	1	0.0	28.0850
1088	opls_808	1	SiO	O0P	1	0.0	15.9990
1089	opls_800	1	SiO	Si7	1	0.0	28.0850
1090	opls_826	1	SiO	H0R	1	0.0	1.0080
1091	opls_808	1	SiO	H0S	1	0.0	1.0080
1092	opls_808	1	SiO	O11	1	0.0	15.9990
1093	opls_800	1	SiO	Si0	1	0.0	28.0850
1094	opls_809	1	SiO	O0X	1	0.0	15.9990
1095	opls_809	1	SiO	O11	1	0.0	15.9990
1096	opls_808	1	SiO	O04	1	0.0	15.9990
1097	opls_800	1	SiO	Si1	1	0.0	28.0850
1098	opls_808	1	SiO	O05	1	0.0	15.9990
1099	opls_808	1	SiO	O06	1	0.0	15.9990
1100	opls_808	1	SiO	O08	1	0.0	15.9990
1101	opls_800	1	SiO	Si2	1	0.0	28.0850
1102	opls_809	1	SiO	O13	1	0.0	15.9990
1103	opls_809	1	SiO	O14	1	0.0	15.9990
1104	opls_808	1	SiO	O0C	1	0.0	15.9990
1105	opls_800	1	SiO	Si3	1	0.0	28.0850
1106	opls_808	1	SiO	O09	1	0.0	15.9990
1107	opls_808	1	SiO	O0F	1	0.0	15.9990
1108	opls_800	1	SiO	Si4	1	0.0	28.0850
1109	opls_808	1	SiO	O0H	1	0.0	15.9990
1110	opls_800	1	SiO	Si5	1	0.0	28.0850
1111	opls_819	1	SiO	H0J	1	0.0	1.0080
1112	opls_820	1	SiO	H0K	1	0.0	1.0080
1113	opls_808	1	SiO	O10	1	0.0	15.9990
1114	opls_808	1	SiO	O0N	1	0.0	15.9990
1115	opls_800	1	SiO	Si6	1	0.0	28.0850
1116	opls_808	1	SiO	O0P	1	0.0	15.9990
1117	opls_800	1	SiO	Si7	1	0.0	28.0850
1118	opls_826	1	SiO	H0R	1	0.0	1.0080
1119	opls_808	1	SiO	H0S	1	0.0	1.0080
1120	opls_808	1	SiO	O11	1	0.0	15.9990
1121	opls_800	1	SiO	Si0	1	0.0	28.0850
1122	opls_809	1	SiO	O0X	1	0.0	15.9990
1123	opls_809	1	SiO	O11	1	0.0	15.9990
1124	opls_808	1	SiO	O04	1	0.0	15.9990
1125	opls_800	1	SiO	Si1	1	0.0	28.0850
1126	opls_808	1	SiO	O05	1	0.0	15.9990
1127	opls_808	1	SiO	O06	1	0.0	15.9990
1128	opls_808	1	SiO	O08	1	0.0	15.9990
1129	opls_800	1	SiO	Si2	1	0.0	28.0850
1130	opls_809	1	SiO	O13	1	0.0	15.9990
1131	opls_809	1	SiO	O14	1	0.0	15.9990
1132	opls_808	1	SiO	O0C	1	0.0	15.9990
1133	opls_800	1	SiO	Si3	1	0.0	28.0850
1134	opls_808	1	SiO	O09	1	0.0	15.9990
1135	opls_808	1	SiO	O0F	1	0.0	15.9990
1136	opls_800	1	SiO	Si4	1	0.0	28.0850
1137	opls_808	1	SiO	O0H	1	0.0	15.9990
1138	opls_800	1	SiO	Si5	1	0.0	28.0850
1139	opls_819	1	SiO	H0J	1	0.0	1.0080
1140	opls_820	1	SiO	H0K	1	0.0	1.0080
1141	opls_808	1	SiO	O10	1	0.0	15.9990
1142	opls_808	1	SiO	O0N	1	0.0	15.9990
1143	opls_800	1	SiO	Si6	1	0.0	28.0850
1144	opls_808	1	SiO	O0P	1	0.0	15.9990
1145	opls_800	1	SiO	Si7	1	0.0	28.0850
1146	opls_826	1	SiO	H0R	1	0.0	1.0080
1147	opls_808	1	SiO	H0S	1	0.0	1.0080
1148	opls_808	1	SiO	O11	1	0.0	15.9990
1149	opls_800	1	SiO	Si0	1	0.0	28.0850
1150	opls_809	1	SiO	O0X	1	0.0	15.9990
1151	opls_809	1	SiO	O11	1	0.0	15.9990
1152	opls_808	1	SiO	O04	1	0.0	15.9990
1153	opls_800	1	SiO	Si1	1	0.0	28.0850
1154	opls_808	1	SiO	O05	1	0.0	15.9990
1155	opls_808	1	SiO	O06	1	0.0	15.9990
1156	opls_808	1	SiO	O08	1	0.0	15.9990
1157	opls_800	1	SiO	Si2	1	0.0	28.0850
1158	opls_809	1	SiO	O13	1	0.0	15.9990
1159	opls_809	1	SiO	O14	1	0.0	15.9990
1160	opls_808	1	SiO	O0C	1	0.0	15.9990
1161	opls_800	1	SiO	Si3	1	0.0	28.0850
1162	opls_808	1	SiO	O09	1	0.0	15.9990
1163	opls_808	1	SiO	O0F	1	0.0	15.9990
1164	opls_800	1	SiO	Si4	1	0.0	28.0850
1165	opls_808	1	SiO	O0H	1	0.0	15.9990
1166	opls_800	1	SiO	Si5	1	0.0	28.0850
1167	opls_819	1	SiO	H0J	1	0.0	1.0080
1168	opls_820	1	SiO	H0K	1	0.0	1.0080
1169	opls_808	1	SiO	O10	1	0.0	15.9990
1170	opls_808	1	SiO	O0N	1	0.0	15.9990
1171	opls_800	1	SiO	Si6	1	0.0	28.0850
1172	opls_808	1	SiO	O0P	1	0.0	15.9990
1173	opls_800	1	SiO	Si7	1	0.0	28.0850
1174	opls_826	1	SiO	H0R	1	0.0	1.0080
1175	opls_808	1	SiO	H0S	1	0.0	1.0080
1176	opls_808	1	SiO	O11	1	0.0	15.9990
1177	opls_800	1	SiO	Si0	1	0.0	28.0850
1178	opls_809	1	SiO	O0X	1	0.0	15.9990
1179	opls_809	1	SiO	O11	1	0.0	15.9990
1180	opls_808	1	SiO	O04	1	0.0	15.9990
1181	opls_800	1	SiO	Si1	1	0.0	28.0850
1182	opls_808	1	SiO	O05	1	0.0	15.9990
1183	opls_808	1	SiO	O06	1	0.0	15.9990
1184	opls_808	1	SiO	O08	1	0.0	15.9990
1185	opls_800	1	SiO	Si2	1	0.0	28.0850
1186	opls_809	1	SiO	O13	1	0.0	15.9990
1187	opls_809	1	SiO	O14	1	0.0	15.9990
1188	opls_808	1	SiO	O0C	1	0.0	15.9990
1189	opls_800	1	SiO	Si3	1	0.0	28.0850
1190	opls_808	1	SiO	O09	1	0.0	15.9990
1191	opls_808	1	SiO	O0F	1	0.0	15.9990
1192	opls_800	1	SiO	Si4	1	0.0	28.0850
1193	opls_808	1	SiO	O0H	1	0.0	15.9990
1194	opls_800	1	SiO	Si5	1	0.0	28.0850
1195	opls_819	1	SiO	H0J	1	0.0	1.0080
1196	opls_820	1	SiO	H0K	1	0.0	1.0080
1197	opls_808	1	SiO	O10	1	0.0	15.9990
1198	opls_808	1	SiO	O0N	1	0.0	15.9990
1199	opls_800	1	SiO	Si6	1	0.0	28.0850
1200	opls_808	1	SiO	O0P	1	0.0	15.9990
1201	opls_800	1	SiO	Si7	1	0.0	28.0850
1202	opls_826	1	SiO	H0R	1	0.0	1.0080
1203	opls_808	1	SiO	H0S	1	0.0	1.0080
1204	opls_808	1	SiO	O11	1	0.0	15.9990
1205	opls_800	1	SiO	Si0	1	0.0	28.0850
1206	opls_809	1	SiO	O0X	1	0.0	15.9990
1207	opls_809	1	SiO	O11	1	0.0	15.9990
1208	opls_808	1	SiO	O04	1	0.0	15.9990
1209	opls_800	1	SiO	Si1	1	0.0	28.0850
1210	opls_808	1	SiO	O05	1	0.0	15.9990
1211	opls_808	1	SiO	O06	1	0.0	15.9990
1212	opls_808	1	SiO	O08	1	0.0	15.9990
1213	opls_800	1	SiO	Si2	1	0.0	28.0850
1214	opls_809	1	SiO	O13	1	0.0	15.9990
1215	opls_809	1	SiO	O14	1	0.0	15.9990
1216	opls_808	1	SiO	O0C	1	0.0	15.9990
1217	opls_800	1	SiO	Si3	1	0.0	28.0850
1218	opls_808	1	SiO	O09	1	0.0	15.9990
1219	opls_808	1	SiO	O0F	1	0.0	15.9990
1220	opls_800	1	SiO	Si4	1	0.0	28.0850
1221	opls_808	1	SiO	O0H	1	0.0	15.9990
1222	opls_800	1	SiO	Si5	1	0.0	28.0850
1223	opls_819	1	SiO	H0J	1	0.0	1.0080
1224	opls_820	1	SiO	H0K	1	0.0	1.0080
1225	opls_808	1	SiO	O10	1	0.0	15.9990
1226	opls_808	1	SiO	O0N	1	0.0	15.9990
1227	opls_800	1	SiO	Si6	1	0.0	28.0850
1228	opls_808	1	SiO	O0P	1	0.0	15.9990
1229	opls_800	1	SiO	Si7	1	0.0	28.0850
1230	opls_826	1	SiO	H0R	1	0.0	1.0080
1231	opls_808	1	SiO	H0S	1	0.0	1.0080
1232	opls_808	1	SiO	O11	1	0.0	15.9990
1233	opls_800	1	SiO	Si0	1	0.0	28.0850
1234	opls_809	1	SiO	O0X	1	0.0	15.9990
1235	opls_809	1	SiO	O11	1	0.0	15.9990
1236	opls_808	1	SiO	O04	1	0.0	15.9990
1237	opls_800	1	SiO	Si1	1	0.0	28.0850
1238	opls_808	1	SiO	O05	1	0.0	15.9990
1239	opls_808	1	SiO	O06	1	0.0	15.9990
1240	opls_808	1	SiO	O08	1	0.0	15.9990
1241	opls_800	1	SiO	Si2	1	0.0	28.0850
1242	opls_809	1	SiO	O13	1	0.0	15.9990
1243	opls_809	1	SiO	O14	1	0.0	15.9990
1244	opls_808	1	SiO	O0C	1	0.0	15.9990
1245	opls_800	1	SiO	Si3	1	0.0	28.0850
1246	opls_808	1	SiO	O09	1	0.0	15.9990
1247	opls_808	1	SiO	O0F	1	0.0	15.9990
1248	opls_800	1	SiO	Si4	1	0.0	28.0850
1249	opls_808	1	SiO	O0H	1	0.0	15.9990
1250	opls_800	1	SiO	Si5	1	0.0	28.0850
1251	opls_819	1	SiO	H0J	1	0.0	1.0080
1252	opls_820	1	SiO	H0K	1	0.0	1.0080
1253	opls_808	1	SiO	O10	1	0.0	15.9990
1254	opls_808	1	SiO	O0N	1	0.0	15.9990
1255	opls_800	1	SiO	Si6	1	0.0	28.0850
1256	opls_808	1	SiO	O0P	1	0.0	15.9990
1257	opls_800	1	SiO	Si7	1	0.0	28.0850
1258	opls_826	1	SiO	H0R	1	0.0	1.0080
1259	opls_808	1	SiO	H0S	1	0.0	1.0080
1260	opls_808	1	SiO	O11	1	0.0	15.9990
1261	opls_800	1	SiO	Si0	1	0.0	28.0850
1262	opls_809	1	SiO	O0X	1	0.0	15.9990
1263	opls_809	1	SiO	O11	1	0.0	15.9990
1264	opls_808	1	SiO	O04	1	0.0	15.9990
1265	opls_800	1	SiO	Si1	1	0.0	28.0850
1266	opls_808	1	SiO	O05	1	0.0	15.9990
1267	opls_808	1	SiO	O06	1	0.0	15.9990
1268	opls_808	1	SiO	O08	1	0.0	15.9990
1269	opls_800	1	SiO	Si2	1	0.0	28.0850
1270	opls_809	1	SiO	O13	1	0.0	15.9990
1271	opls_809	1	SiO	O14	1	0.0	15.9990
1272	opls_808	1	SiO	O0C	1	0.0	15.9990
1273	opls_800	1	SiO	Si3	1	0.0	28.0850
1274	opls_808	1	SiO	O09	1	0.0	15.9990
1275	opls_808	1	SiO	O0F	1	0.0	15.9990
1276	opls_800	1	SiO	Si4	1	0.0	28.0850
1277	opls_808	1	SiO	O0H	1	0.0	15.9990
1278	opls_800	1	SiO	Si5	1	0.0	28.0850
1279	opls_819	1	SiO	H0J	1	0.0	1.0080
1280	opls_820	1	SiO	H0K	1	0.0	1.0080
1281	opls_808	1	SiO	O10	1	0.0	15.9990
1282	opls_808	1	SiO	O0N	1	0.0	15.9990
1283	opls_800	1	SiO	Si6	1	0.0	28.0850
1284	opls_808	1	SiO	O0P	1	0.0	15.9990
1285	opls_800	1	SiO	Si7	1	0.0	28.0850
1286	opls_826	1	SiO	H0R	1	0.0	1.0080
1287	opls_808	1	SiO	H0S	1	0.0	1.0080
1288	opls_808	1	SiO	O11	1	0.0	15.9990
1289	opls_800	1	SiO	Si0	1	0.0	28.0850
1290	opls_809	1	SiO	O0X	1	0.0	15.9990
1291	opls_809	1	SiO	O11	1	0.0	15.9990
1292	opls_808	1	SiO	O04	1	0.0	15.9990
1293	opls_800	1	SiO	Si1	1	0.0	28.0850
1294	opls_808	1	SiO	O05	1	0.0	15.9990
1295	opls_808	1	SiO	O06	1	0.0	15.9990
1296	opls_808	1	SiO	O08	1	0.0	15.9990
1297	opls_800	1	SiO	Si2	1	0.0	28.0850
1298	opls_809	1	SiO	O13	1	0.0	15.9990
1299	opls_809	1	SiO	O14	1	0.0	15.9990
1300	opls_808	1	SiO	O0C	1	0.0	15.9990
1301	opls_800	1	SiO	Si3	1	0.0	28.0850
1302	opls_808	1	SiO	O09	1	0.0	15.9990
1303	opls_808	1	SiO	O0F	1	0.0	15.9990
1304	opls_800	1	SiO	Si4	1	0.0	28.0850
1305	opls_808	1	SiO	O0H	1	0.0	15.9990
1306	opls_800	1	SiO	Si5	1	0.0	28.0850
1307	opls_819	1	SiO	H0J	1	0.0	1.0080
1308	opls_820	1	SiO	H0K	1	0.0	1.0080
1309	opls_808	1	SiO	O10	1	0.0	15.9990
1310	opls_808	1	SiO	O0N	1	0.0	15.9990
1311	opls_800	1	SiO	Si6	1	0.0	28.0850
1312	opls_808	1	SiO	O0P	1	0.0	15.9990
1313	opls_800	1	SiO	Si7	1	0.0	28.0850
1314	opls_826	1	SiO	H0R	1	0.0	1.0080
1315	opls_808	1	SiO	H0S	1	0.0	1.0080
1316	opls_808	1	SiO	O11	1	0.0	15.9990
1317	opls_800	1	SiO	Si0	1	0.0	28.0850
1318	opls_809	1	SiO	O0X	1	0.0	15.9990
1319	opls_809	1	SiO	O11	1	0.0	15.9990
1320	opls_808	1	SiO	O04	1	0.0	15.9990
1321	opls_800	1	SiO	Si1	1	0.0	28.0850
1322	opls_808	1	SiO	O05	1	0.0	15.9990
1323	opls_808	1	SiO	O06	1	0.0	15.9990
1324	opls_808	1	SiO	O08	1	0.0	15.9990
1325	opls_800	1	SiO	Si2	1	0.0	28.0850
1326	opls_809	1	SiO	O13	1	0.0	15.9990
1327	opls_809	1	SiO	O14	1	0.0	15.9990
1328	opls_808	1	SiO	O0C	1	0.0	15.9990
1329	opls_800	1	SiO	Si3	1	0.0	28.0850
1330	opls_808	1	SiO	O09	1	0.0	15.9990
1331	opls_808	1	SiO	O0F	1	0.0	15.9990
1332	opls_800	1	SiO	Si4	1	0.0	28.0850
1333	opls_808	1	SiO	O0H	1	0.0	15.9990
1334	opls_800	1	SiO	Si5	1	0.0	28.0850
1335	opls_819	1	SiO	H0J	1	0.0	1.0080
1336	opls_820	1	SiO	H0K	1	0.0	1.0080
1337	opls_808	1	SiO	O10	1	0.0	15.9990
1338	opls_808	1	SiO	O0N	1	0.0	15.9990
1339	opls_800	1	SiO	Si6	1	0.0	28.0850
1340	opls_808	1	SiO	O0P	1	0.0	15.9990
1341	opls_800	1	SiO	Si7	1	0.0	28.0850
1342	opls_826	1	SiO	H0R	1	0.0	1.0080
1343	opls_808	1	SiO	H0S	1	0.0	1.0080
1344	opls_808	1	SiO	O11	1	0.0	15.9990
1345	opls_800	1	SiO	Si0	1	0.0	28.0850
1346	opls_809	1	SiO	O0X	1	0.0	15.9990
1347	opls_809	1	SiO	O11	1	0.0	15.9990
1348	opls_808	1	SiO	O04	1	0.0	15.9990
1349	opls_800	1	SiO	Si1	1	0.0	28.0850
1350	opls_808	1	SiO	O05	1	0.0	15.9990
1351	opls_808	1	SiO	O06	1	0.0	15.9990
1352	opls_808	1	SiO	O08	1	0.0	15.9990
1353	opls_800	1	SiO	Si2	1	0.0	28.0850
1354	opls_809	1	SiO	O13	1	0.0	15.9990
1355	opls_809	1	SiO	O14	1	0.0	15.9990
1356	opls_808	1	SiO	O0C	1	0.0	15.9990
1357	opls_800	1	SiO	Si3	1	0.0	28.0850
1358	opls_808	1	SiO	O09	1	0.0	15.9990
1359	opls_808	1	SiO	O0F	1	0.0	15.9990
1360	opls_800	1	SiO	Si4	1	0.0	28.0850
1361	opls_808	1	SiO	O0H	1	0.0	15.9990
1362	opls_800	1	SiO	Si5	1	0.0	28.0850
1363	opls_819	1	SiO	H0J	1	0.0	1.0080
1364	opls_820	1	SiO	H0K	1	0.0	1.0080
1365	opls_808	1	SiO	O10	1	0.0	15.9990
1366	opls_808	1	SiO	O0N	1	0.0	15.9990
1367	opls_800	1	SiO	Si6	1	0.0	28.0850
1368	opls_808	1	SiO	O0P	1	0.0	15.9990
1369	opls_800	1	SiO	Si7	1	0.0	28.0850
1370	opls_826	1	SiO	H0R	1	0.0	1.0080
1371	opls_808	1	SiO	H0S	1	0.0	1.0080
1372	opls_808	1	SiO	O11	1	0.0	15.9990
1373	opls_800	1	SiO	Si0	1	0.0	28.0850
1374	opls_809	1	SiO	O0X	1	0.0	15.9990
1375	opls_809	1	SiO	O11	1	0.0	15.9990
1376	opls_808	1	SiO	O04	1	0.0	15.9990
1377	opls_800	1	SiO	Si1	1	0.0	28.0850
1378	opls_808	1	SiO	O05	1	0.0	15.9990
1379	opls_808	1	SiO	O06	1	0.0	15.9990
1380	opls_808	1	SiO	O08	1	0.0	15.9990
1381	opls_800	1	SiO	Si2	1	0.0	28.0850
1382	opls_809	1	SiO	O13	1	0.0	15.9990
1383	opls_809	1	SiO	O14	1	0.0	15.9990
1384	opls_808	1	SiO	O0C	1	0.0	15.9990
1385	opls_800	1	SiO	Si3	1	0.0	28.0850
1386	opls_808	1	SiO	O09	1	0.0	15.9990
1387	opls_808	1	SiO	O0F	1	0.0	15.9990
1388	opls_800	1	SiO	Si4	1	0.0	28.0850
1389	opls_808	1	SiO	O0H	1	0.0	15.9990
1390	opls_800	1	SiO	Si5	1	0.0	28.0850
1391	opls_819	1	SiO	H0J	1	0.0	1.0080
1392	opls_820	1	SiO	H0K	1	0.0	1.0080
1393	opls_808	1	SiO	O10	1	0.0	15.9990
1394	opls_808	1	SiO	O0N	1	0.0	15.9990
1395	opls_800	1	SiO	Si6	1	0.0	28.0850
1396	opls_808	1	SiO	O0P	1	0.0	15.9990
1397	opls_800	1	SiO	Si7	1	0.0	28.0850
1398	opls_826	1	SiO	H0R	1	0.0	1.0080
1399	opls_808	1	SiO	H0S	1	0.0	1.0080
1400	opls_808	1	SiO	O11	1	0.0	15.9990
1401	opls_800	1	SiO	Si0	1	0.0	28.0850
1402	opls_809	1	SiO	O0X	1	0.0	15.9990
1403	opls_809	1	SiO	O11	1	0.0	15.9990
1404	opls_808	1	SiO	O04	1	0.0	15.9990
1405	opls_800	1	SiO	Si1	1	0.0	28.0850
1406	opls_808	1	SiO	O05	1	0.0	15.9990
1407	opls_808	1	SiO	O06	1	0.0	15.9990
1408	opls_808	1	SiO	O08	1	0.0	15.9990
1409	opls_800	1	SiO	Si2	1	0.0	28.0850
1410	opls_809	1	SiO	O13	1	0.0	15.9990
1411	opls_809	1	SiO	O14	1	0.0	15.9990
1412	opls_808	1	SiO	O0C	1	0.0	15.9990
1413	opls_800	1	SiO	Si3	1	0.0	28.0850
1414	opls_808	1	SiO	O09	1	0.0	15.9990
1415	opls_808	1	SiO	O0F	1	0.0	15.9990
1416	opls_800	1	SiO	Si4	1	0.0	28.0850
1417	opls_808	1	SiO	O0H	1	0.0	15.9990
1418	opls_800	1	SiO	Si5	1	0.0	28.0850
1419	opls_819	1	SiO	H0J	1	0.0	1.0080
1420	opls_820	1	SiO	H0K	1	0.0	1.0080
1421	opls_808	1	SiO	O10	1	0.0	15.9990
1422	opls_808	1	SiO	O0N	1	0.0	15.9990
1423	opls_800	1	SiO	Si6	1	0.0	28.0850
1424	opls_808	1	SiO	O0P	1	0.0	15.9990
1425	opls_800	1	SiO	Si7	1	0.0	28.0850
1426	opls_826	1	SiO	H0R	1	0.0	1.0080
1427	opls_808	1	SiO	H0S	1	0.0	1.0080
1428	opls_808	1	SiO	O11	1	0.0	15.9990
1429	opls_800	1	SiO	Si0	1	0.0	28.0850
1430	opls_809	1	SiO	O0X	1	0.0	15.9990
1431	opls_809	1	SiO	O11	1	0.0	15.9990
1432	opls_808	1	SiO	O04	1	0.0	15.9990
1433	opls_800	1	SiO	Si1	1	0.0	28.0850
1434	opls_808	1	SiO	O05	1	0.0	15.9990
1435	opls_808	1	SiO	O06	1	0.0	15.9990
1436	opls_808	1	SiO	O08	1	0.0	15.9990
1437	opls_800	1	SiO	Si2	1	0.0	28.0850
1438	opls_809	1	SiO	O13	1	0.0	15.9990
1439	opls_809	1	SiO	O14	1	0.0	15.9990
1440	opls_808	1	SiO	O0C	1	0.0	15.9990
1441	opls_800	1	SiO	Si3	1	0.0	28.0850
1442	opls_808	1	SiO	O09	1	0.0	15.9990
1443	opls_808	1	SiO	O0F	1	0.0	15.9990
1444	opls_800	1	SiO	Si4	1	0.0	28.0850
1445	opls_808	1	SiO	O0H	1	0.0	15.9990
1446	opls_800	1	SiO	Si5	1	0.0	28.0850
1447	opls_819	1	SiO	H0J	1	0.0	1.0080
1448	opls_820	1	SiO	H0K	1	0.0	1.0080
1449	opls_808	1	SiO	O10	1	0.0	15.9990
1450	opls_808	1	SiO	O0N	1	0.0	15.9990
1451	opls_800	1	SiO	Si6	1	0.0	28.0850
1452	opls_808	1	SiO	O0P	1	0.0	15.9990
1453	opls_800	1	SiO	Si7	1	0.0	28.0850
1454	opls_826	1	SiO	H0R	1	0.0	1.0080
1455	opls_808	1	SiO	H0S	1	0.0	1.0080
1456	opls_808	1	SiO	O11	1	0.0	15.9990
1457	opls_800	1	SiO	Si0	1	0.0	28.0850
1458	opls_809	1	SiO	O0X	1	0.0	15.9990
1459	opls_809	1	SiO	O11	1	0.0	15.9990
1460	opls_808	1	SiO	O04	1	0.0	15.9990
1461	opls_800	1	SiO	Si1	1	0.0	28.0850
1462	opls_808	1	SiO	O05	1	0.0	15.9990
1463	opls_808	1	SiO	O06	1	0.0	15.9990
1464	opls_808	1	SiO	O08	1	0.0	15.9990
1465	opls_800	1	SiO	Si2	1	0.0	28.0850
1466	opls_809	1	SiO	O13	1	0.0	15.9990
1467	opls_809	1	SiO	O14	1	0.0	15.9990
1468	opls_808	1	SiO	O0C	1	0.0	15.9990
1469	opls_800	1	SiO	Si3	1	0.0	28.0850
1470	opls_808	1	SiO	O09	1	0.0	15.9990
1471	opls_808	1	SiO	O0F	1	0.0	15.9990
1472	opls_800	1	SiO	Si4	1	0.0	28.0850
1473	opls_808	1	SiO	O0H	1	0.0	15.9990
1474	opls_800	1	SiO	Si5	1	0.0	28.0850
1475	opls_819	1	SiO	H0J	1	0.0	1.0080
1476	opls_820	1	SiO	H0K	1	0.0	1.0080
1477	opls_808	1	SiO	O10	1	0.0	15.9990
1478	opls_808	1	SiO	O0N	1	0.0	15.9990
1479	opls_800	1	SiO	Si6	1	0.0	28.0850
1480	opls_808	1	SiO	O0P	1	0.0	15.9990
1481	opls_800	1	SiO	Si7	1	0.0	28.0850
1482	opls_826	1	SiO	H0R	1	0.0	1.0080
1483	opls_808	1	SiO	H0S	1	0.0	1.0080
1484	opls_808	1	SiO	O11	1	0.0	15.9990
1485	opls_800	1	SiO	Si0	1	0.0	28.0850
1486	opls_809	1	SiO	O0X	1	0.0	15.9990
1487	opls_809	1	SiO	O11	1	0.0	15.9990
1488	opls_808	1	SiO	O04	1	0.0	15.9990
1489	opls_800	1	SiO	Si1	1	0.0	28.0850
1490	opls_808	1	SiO	O05	1	0.0	15.9990
1491	opls_808	1	SiO	O06	1	0.0	15.9990
1492	opls_808	1	SiO	O08	1	0.0	15.9990
1493	opls_800	1	SiO	Si2	1	0.0	28.0850
1494	opls_809	1	SiO	O13	1	0.0	15.9990
1495	opls_809	1	SiO	O14	1	0.0	15.9990
1496	opls_808	1	SiO	O0C	1	0.0	15.9990
1497	opls_800	1	SiO	Si3	1	0.0	28.0850
1498	opls_808	1	SiO	O09	1	0.0	15.9990
1499	opls_808	1	SiO	O0F	1	0.0	15.9990
1500	opls_800	1	SiO	Si4	1	0.0	28.0850
1501	opls_808	1	SiO	O0H	1	0.0	15.9990
1502	opls_800	1	SiO	Si5	1	0.0	28.0850
1503	opls_819	1	SiO	H0J	1	0.0	1.0080
1504	opls_820	1	SiO	H0K	1	0.0	1.0080
1505	opls_808	1	SiO	O10	1	0.0	15.9990
1506	opls_808	1	SiO	O0N	1	0.0	15.9990
1507	opls_800	1	SiO	Si6	1	0.0	28.0850
1508	opls_808	1	SiO	O0P	1	0.0	15.9990
1509	opls_800	1	SiO	Si7	1	0.0	28.0850
1510	opls_826	1	SiO	H0R	1	0.0	1.0080
1511	opls_808	1	SiO	H0S	1	0.0	1.0080
1512	opls_808	1	SiO	O11	1	0.0	15.9990
1513	opls_800	1	SiO	Si0	1	0.0	28.0850
1514	opls_809	1	SiO	O0X	1	0.0	15.9990
1515	opls_809	1	SiO	O11	1	0.0	15.9990
1516	opls_808	1	SiO	O04	1	0.0	15.9990
1517	opls_800	1	SiO	Si1	1	0.0	28.0850
1518	opls_808	1	SiO	O05	1	0.0	15.9990
1519	opls_808	1	SiO	O06	1	0.0	15.9990
1520	opls_808	1	SiO	O08	1	0.0	15.9990
1521	opls_800	1	SiO	Si2	1	0.0	28.0850
1522	opls_809	1	SiO	O13	1	0.0	15.9990
1523	opls_809	1	SiO	O14	1	0.0	15.9990
1524	opls_808	1	SiO	O0C	1	0.0	15.9990
1525	opls_800	1	SiO	Si3	1	0.0	28.0850
1526	opls_808	1	SiO	O09	1	0.0	15.9990
1527	opls_808	1	SiO	O0F	1	0.0	15.9990
1528	opls_800	1	SiO	Si4	1	0.0	28.0850
1529	opls_808	1	SiO	O0H	1	0.0	15.9990
1530	opls_800	1	SiO	Si5	1	0.0	28.0850
1531	opls_819	1	SiO	H0J	1	0.0	1.0080
1532	opls_820	1	SiO	H0K	1	0.0	1.0080
1533	opls_808	1	SiO	O10	1	0.0	15.9990
1534	opls_808	1	SiO	O0N	1	0.0	15.9990
1535	opls_800	1	SiO	Si6	1	0.0	28.0850
1536	opls_808	1	SiO	O0P	1	0.0	15.9990
1537	opls_800	1	SiO	Si7	1	0.0	28.0850
1538	opls_826	1	SiO	H0R	1	0.0	1.0080
1539	opls_808	1	SiO	H0S	1	0.0	1.0080
1540	opls_808	1	SiO	O11	1	0.0	15.9990
1541	opls_800	1	SiO	Si0	1	0.0	28.0850
1542	opls_809	1	SiO	O0X	1	0.0	15.9990
1543	opls_809	1	SiO	O11	1	0.0	15.9990
1544	opls_808	1	SiO	O04	1	0.0	15.9990
1545	opls_800	1	SiO	Si1	1	0.0	28.0850
1546	opls_808	1	SiO	O05	1	0.0	15.9990
1547	opls_808	1	SiO	O06	1	0.0	15.9990
1548	opls_808	1	SiO	O08	1	0.0	15.9990
1549	opls_800	1	SiO	Si2	1	0.0	28.0850
1550	opls_809	1	SiO	O13	1	0.0	15.9990
1551	opls_809	1	SiO	O14	1	0.0	15.9990
1552	opls_808	1	SiO	O0C	1	0.0	15.9990
1553	opls_800	1	SiO	Si3	1	0.0	28.0850
1554	opls_808	1	SiO	O09	1	0.0	15.9990
1555	opls_808	1	SiO	O0F	1	0.0	15.9990
1556	opls_800	1	SiO	Si4	1	0.0	28.0850
1557	opls_808	1	SiO	O0H	1	0.0	15.9990
1558	opls_800	1	SiO	Si5	1	0.0	28.0850
1559	opls_819	1	SiO	H0J	1	0.0	1.0080
1560	opls_820	1	SiO	H0K	1	0.0	1.0080
1561	opls_808	1	SiO	O10	1	0.0	15.9990
1562	opls_808	1	SiO	O0N	1	0.0	15.9990
1563	opls_800	1	SiO	Si6	1	0.0	28.0850
1564	opls_808	1	SiO	O0P	1	0.0	15.9990
1565	opls_800	1	SiO	Si7	1	0.0	28.0850
1566	opls_826	1	SiO	H0R	1	0.0	1.0080
1567	opls_808	1	SiO	H0S	1	0.0	1.0080
1568	opls_808	1	SiO	O11	1	0.0	15.9990
1569	opls_800	1	SiO	Si0	1	0.0	28.0850
1570	opls_809	1	SiO	O0X	1	0.0	15.9990
1571	opls_809	1	SiO	O11	1	0.0	15.9990
1572	opls_808	1	SiO	O04	1	0.0	15.9990
1573	opls_800	1	SiO	Si1	1	0.0	28.0850
1574	opls_808	1	SiO	O05	1	0.0	15.9990
1575	opls_808	1	SiO	O06	1	0.0	15.9990
1576	opls_808	1	SiO	O08	1	0.0	15.9990
1577	opls_800	1	SiO	Si2	1	0.0	28.0850
1578	opls_809	1	SiO	O13	1	0.0	15.9990
1579	opls_809	1	SiO	O14	1	0.0	15.9990
1580	opls_808	1	SiO	O0C	1	0.0	15.9990
1581	opls_800	1	SiO	Si3	1	0.0	28.0850
1582	opls_808	1	SiO	O09	1	0.0	15.9990
1583	opls_808	1	SiO	O0F	1	0.0	15.9990
1584	opls_800	1	SiO	Si4	1	0.0	28.0850
1585	opls_808	1	SiO	O0H	1	0.0	15.9990
1586	opls_800	1	SiO	Si5	1	0.0	28.0850
1587	opls_819	1	SiO	H0J	1	0.0	1.0080
1588	opls_820	1	SiO	H0K	1	0.0	1.0080
1589	opls_808	1	SiO	O10	1	0.0	15.9990
1590	opls_808	1	SiO	O0N	1	0.0	15.9990
1591	opls_800	1	SiO	Si6	1	0.0	28.0850
1592	opls_808	1	SiO	O0P	1	0.0	15.9990
1593	opls_800	1	SiO	Si7	1	0.0	28.0850
1594	opls_826	1	SiO	H0R	1	0.0	1.0080
1595	opls_808	1	SiO	H0S	1	0.0	1.0080
1596	opls_808	1	SiO	O11	1	0.0	15.9990
1597	opls_800	1	SiO	Si0	1	0.0	28.0850
1598	opls_809	1	SiO	O0X	1	0.0	15.9990
1599	opls_809	1	SiO	O11	1	0.0	15.9990
1600	opls_808	1	SiO	O04	1	0.0	15.9990
1601	opls_800	1	SiO	Si1	1	0.0	28.0850
1602	opls_808	1	SiO	O05	1	0.0	15.9990
1603	opls_808	1	SiO	O06	1	0.0	15.9990
1604	opls_808	1	SiO	O08	1	0.0	15.9990
1605	opls_800	1	SiO	Si2	1	0.0	28.0850
1606	opls_809	1	SiO	O13	1	0.0	15.9990
1607	opls_809	1	SiO	O14	1	0.0	15.9990
1608	opls_808	1	SiO	O0C	1	0.0	15.9990
1609	opls_800	1	SiO	Si3	1	0.0	28.0850
1610	opls_808	1	SiO	O09	1	0.0	15.9990
1611	opls_808	1	SiO	O0F	1	0.0	15.9990
1612	opls_800	1	SiO	Si4	1	0.0	28.0850
1613	opls_808	1	SiO	O0H	1	0.0	15.9990
1614	opls_800	1	SiO	Si5	1	0.0	28.0850
1615	opls_819	1	SiO	H0J	1	0.0	1.0080
1616	opls_820	1	SiO	H0K	1	0.0	1.0080
1617	opls_808	1	SiO	O10	1	0.0	15.9990
1618	opls_808	1	SiO	O0N	1	0.0	15.9990
1619	opls_800	1	SiO	Si6	1	0.0	28.0850
1620	opls_808	1	SiO	O0P	1	0.0	15.9990
1621	opls_800	1	SiO	Si7	1	0.0	28.0850
1622	opls_826	1	SiO	H0R	1	0.0	1.0080
1623	opls_808	1	SiO	H0S	1	0.0	1.0080
1624	opls_808	1	SiO	O11	1	0.0	15.9990
1625	opls_800	1	SiO	Si0	1	0.0	28.0850
1626	opls_809	1	SiO	O0X	1	0.0	15.9990
1627	opls_809	1	SiO	O11	1	0.0	15.9990
1628	opls_808	1	SiO	O04	1	0.0	15.9990
1629	opls_800	1	SiO	Si1	1	0.0	28.0850
1630	opls_808	1	SiO	O05	1	0.0	15.9990
1631	opls_808	1	SiO	O06	1	0.0	15.9990
1632	opls_808	1	SiO	O08	1	0.0	15.9990
1633	opls_800	1	SiO	Si2	1	0.0	28.0850
1634	opls_809	1	SiO	O13	1	0.0	15.9990
1635	opls_809	1	SiO	O14	1	0.0	15.9990
1636	opls_808	1	SiO	O0C	1	0.0	15.9990
1637	opls_800	1	SiO	Si3	1	0.0	28.0850
1638	opls_808	1	SiO	O09	1	0.0	15.9990
1639	opls_808	1	SiO	O0F	1	0.0	15.9990
1640	opls_800	1	SiO	Si4	1	0.0	28.0850
1641	opls_808	1	SiO	O0H	1	0.0	15.9990
1642	opls_800	1	SiO	Si5	1	0.0	28.0850
1643	opls_819	1	SiO	H0J	1	0.0	1.0080
1644	opls_820	1	SiO	H0K	1	0.0	1.0080
1645	opls_808	1	SiO	O10	1	0.0	15.9990
1646	opls_808	1	SiO	O0N	1	0.0	15.9990
1647	opls_800	1	SiO	Si6	1	0.0	28.0850
1648	opls_808	1	SiO	O0P	1	0.0	15.9990
1649	opls_800	1	SiO	Si7	1	0.0	28.0850
1650	opls_826	1	SiO	H0R	1	0.0	1.0080
1651	opls_808	1	SiO	H0S	1	0.0	1.0080
1652	opls_808	1	SiO	O11	1	0.0	15.9990
1653	opls_800	1	SiO	Si0	1	0.0	28.0850
1654	opls_809	1	SiO	O0X	1	0.0	15.9990
1655	opls_809	1	SiO	O11	1	0.0	15.9990
1656	opls_808	1	SiO	O04	1	0.0	15.9990
1657	opls_800	1	SiO	Si1	1	0.0	28.0850
1658	opls_808	1	SiO	O05	1	0.0	15.9990
1659	opls_808	1	SiO	O06	1	0.0	15.9990
1660	opls_808	1	SiO	O08	1	0.0	15.9990
1661	opls_800	1	SiO	Si2	1	0.0	28.0850
1662	opls_809	1	SiO	O13	1	0.0	15.9990
1663	opls_809	1	SiO	O14	1	0.0	15.9990
1664	opls_808	1	SiO	O0C	1	0.0	15.9990
1665	opls_800	1	SiO	Si3	1	0.0	28.0850
1666	opls_808	1	SiO	O09	1	0.0	15.9990
1667	opls_808	1	SiO	O0F	1	0.0	15.9990
1668	opls_800	1	SiO	Si4	1	0.0	28.0850
1669	opls_808	1	SiO	O0H	1	0.0	15.9990
1670	opls_800	1	SiO	Si5	1	0.0	28.0850
1671	opls_819	1	SiO	H0J	1	0.0	1.0080
1672	opls_820	1	SiO	H0K	1	0.0	1.0080
1673	opls_808	1	SiO	O10	1	0.0	15.9990
1674	opls_808	1	SiO	O0N	1	0.0	15.9990
1675	opls_800	1	SiO	Si6	1	0.0	28.0850
1676	opls_808	1	SiO	O0P	1	0.0	15.9990
1677	opls_800	1	SiO	Si7	1	0.0	28.0850
1678	opls_826	1	SiO	H0R	1	0.0	1.0080
1679	opls_808	1	SiO	H0S	1	0.0	1.0080
1680	opls_808	1	SiO	O11	1	0.0	15.9990
1681	opls_800	1	SiO	Si0	1	0.0	28.0850
1682	opls_809	1	SiO	O0X	1	0.0	15.9990
1683	opls_809	1	SiO	O11	1	0.0	15.9990
1684	opls_808	1	SiO	O04	1	0.0	15.9990
1685	opls_800	1	SiO	Si1	1	0.0	28.0850
1686	opls_808	1	SiO	O05	1	0.0	15.9990
1687	opls_808	1	SiO	O06	1	0.0	15.9990
1688	opls_808	1	SiO	O08	1	0.0	15.9990
1689	opls_800	1	SiO	Si2	1	0.0	28.0850
1690	opls_809	1	SiO	O13	1	0.0	15.9990
1691	opls_809	1	SiO	O14	1	0.0	15.9990
1692	opls_808	1	SiO	O0C	1	0.0	15.9990
1693	opls_800	1	SiO	Si3	1	0.0	28.0850
1694	opls_808	1	SiO	O09	1	0.0	15.9990
1695	opls_808	1	SiO	O0F	1	0.0	15.9990
1696	opls_800	1	SiO	Si4	1	0.0	28.0850
1697	opls_808	1	SiO	O0H	1	0.0	15.9990
1698	opls_800	1	SiO	Si5	1	0.0	28.0850
1699	opls_819	1	SiO	H0J	1	0.0	1.0080
1700	opls_820	1	SiO	H0K	1	0.0	1.0080
1701	opls_808	1	SiO	O10	1	0.0	15.9990
1702	opls_808	1	SiO	O0N	1	0.0	15.9990
1703	opls_800	1	SiO	Si6	1	0.0	28.0850
1704	opls_808	1	SiO	O0P	1	0.0	15.9990
1705	opls_800	1	SiO	Si7	1	0.0	28.0850
1706	opls_826	1	SiO	H0R	1	0.0	1.0080
1707	opls_808	1	SiO	H0S	1	0.0	1.0080
1708	opls_808	1	SiO	O11	1	0.0	15.9990
1709	opls_800	1	SiO	Si0	1	0.0	28.0850
1710	opls_809	1	SiO	O0X	1	0.0	15.9990
1711	opls_809	1	SiO	O11	1	0.0	15.9990
1712	opls_808	1	SiO	O04	1	0.0	15.9990
1713	opls_800	1	SiO	Si1	1	0.0	28.0850
1714	opls_808	1	SiO	O05	1	0.0	15.9990
1715	opls_808	1	SiO	O06	1	0.0	15.9990
1716	opls_808	1	SiO	O08	1	0.0	15.9990
1717	opls_800	1	SiO	Si2	1	0.0	28.0850
1718	opls_809	1	SiO	O13	1	0.0	15.9990
1719	opls_809	1	SiO	O14	1	0.0	15.9990
1720	opls_808	1	SiO	O0C	1	0.0	15.9990
1721	opls_800	1	SiO	Si3	1	0.0	28.0850
1722	opls_808	1	SiO	O09	1	0.0	15.9990
1723	opls_808	1	SiO	O0F	1	0.0	15.9990
1724	opls_800	1	SiO	Si4	1	0.0	28.0850
1725	opls_808	1	SiO	O0H	1	0.0	15.9990
1726	opls_800	1	SiO	Si5	1	0.0	28.0850
1727	opls_819	1	SiO	H0J	1	0.0	1.0080
1728	opls_820	1	SiO	H0K	1	0.0	1.0080
1729	opls_808	1	SiO	O10	1	0.0	15.9990
1730	opls_808	1	SiO	O0N	1	0.0	15.9990
1731	opls_800	1	SiO	Si6	1	0.0	28.0850
1732	opls_808	1	SiO	O0P	1	0.0	15.9990
1733	opls_800	1	SiO	Si7	1	0.0	28.0850
1734	opls_826	1	SiO	H0R	1	0.0	1.0080
1735	opls_808	1	SiO	H0S	1	0.0	1.0080
1736	opls_808	1	SiO	O11	1	0.0	15.9990
1737	opls_800	1	SiO	Si0	1	0.0	28.0850
1738	opls_809	1	SiO	O0X	1	0.0	15.9990
1739	opls_809	1	SiO	O11	1	0.0	15.9990
1740	opls_808	1	SiO	O04	1	0.0	15.9990
1741	opls_800	1	SiO	Si1	1	0.0	28.0850
1742	opls_808	1	SiO	O05	1	0.0	15.9990
1743	opls_808	1	SiO	O06	1	0.0	15.9990
1744	opls_808	1	SiO	O08	1	0.0	15.9990
1745	opls_800	1	SiO	Si2	1	0.0	28.0850
1746	opls_809	1	SiO	O13	1	0.0	15.9990
1747	opls_809	1	SiO	O14	1	0.0	15.9990
1748	opls_808	1	SiO	O0C	1	0.0	15.9990
1749	opls_800	1	SiO	Si3	1	0.0	28.0850
1750	opls_808	1	SiO	O09	1	0.0	15.9990
1751	opls_808	1	SiO	O0F	1	0.0	15.9990
1752	opls_800	1	SiO	Si4	1	0.0	28.0850
1753	opls_808	1	SiO	O0H	1	0.0	15.9990
1754	opls_800	1	SiO	Si5	1	0.0	28.0850
1755	opls_819	1	SiO	H0J	1	0.0	1.0080
1756	opls_820	1	SiO	H0K	1	0.0	1.0080
1757	opls_808	1	SiO	O10	1	0.0	15.9990
1758	opls_808	1	SiO	O0N	1	0.0	15.9990
1759	opls_800	1	SiO	Si6	1	0.0	28.0850
1760	opls_808	1	SiO	O0P	1	0.0	15.9990
1761	opls_800	1	SiO	Si7	1	0.0	28.0850
1762	opls_826	1	SiO	H0R	1	0.0	1.0080
1763	opls_808	1	SiO	H0S	1	0.0	1.0080
1764	opls_808	1	SiO	O11	1	0.0	15.9990
1765	opls_800	1	SiO	Si0	1	0.0	28.0850
1766	opls_809	1	SiO	O0X	1	0.0	15.9990
1767	opls_809	1	SiO	O11	1	0.0	15.9990
1768	opls_808	1	SiO	O04	1	0.0	15.9990
1769	opls_800	1	SiO	Si1	1	0.0	28.0850
1770	opls_808	1	SiO	O05	1	0.0	15.9990
1771	opls_808	1	SiO	O06	1	0.0	15.9990
1772	opls_808	1	SiO	O08	1	0.0	15.9990
1773	opls_800	1	SiO	Si2	1	0.0	28.0850
1774	opls_809	1	SiO	O13	1	0.0	15.9990
1775	opls_809	1	SiO	O14	1	0.0	15.9990
1776	opls_808	1	SiO	O0C	1	0.0	15.9990
1777	opls_800	1	SiO	Si3	1	0.0	28.0850
1778	opls_808	1	SiO	O09	1	0.0	15.9990
1779	opls_808	1	SiO	O0F	1	0.0	15.9990
1780	opls_800	1	SiO	Si4	1	0.0	28.0850
1781	opls_808	1	SiO	O0H	1	0.0	15.9990
1782	opls_800	1	SiO	Si5	1	0.0	28.0850
1783	opls_819	1	SiO	H0J	1	0.0	1.0080
1784	opls_820	1	SiO	H0K	1	0.0	1.0080
1785	opls_808	1	SiO	O10	1	0.0	15.9990
1786	opls_808	1	SiO	O0N	1	0.0	15.9990
1787	opls_800	1	SiO	Si6	1	0.0	28.0850
1788	opls_808	1	SiO	O0P	1	0.0	15.9990
1789	opls_800	1	SiO	Si7	1	0.0	28.0850
1790	opls_826	1	SiO	H0R	1	0.0	1.0080
1791	opls_808	1	SiO	H0S	1	0.0	1.0080
1792	opls_808	1	SiO	O11	1	0.0	15.9990
1793	opls_806	1	SiO2	Ha8	1	0.0	1.008
1794	opls_806	1	SiO2	Ha8	1	0.0	1.008
1795	opls_806	1	SiO2	Ha8	1	0.0	1.008
1796	opls_806	1	SiO2	Ha8	1	0.0	1.008
1797	opls_806	1	SiO2	Ha8	1	0.0	1.008
1798	opls_806	1	SiO2	Ha8	1	0.0	1.008
1799	opls_806	1	SiO2	Ha8	1	0.0	1.008
1800	opls_806	1	SiO2	Ha8	1	0.0	1.008
1801	opls_806	1	SiO2	Ha8	1	0.0	1.008
1802	opls_806	1	SiO2	Ha8	1	0.0	1.008
1803	opls_806	1	SiO2	Ha8	1	0.0	1.008
1804	opls_806	1	SiO2	Ha8	1	0.0	1.008
1805	opls_806	1	SiO2	Ha8	1	0.0	1.008
1806	opls_806	1	SiO2	Ha8	1	0.0	1.008
1807	opls_806	1	SiO2	Ha8	1	0.0	1.008
1808	opls_806	1	SiO2	Ha8	1	0.0	1.008
1809	opls_806	1	SiO2	Ha8	1	0.0	1.008
1810	opls_806	1	SiO2	Ha8	1	0.0	1.008
1811	opls_806	1	SiO2	Ha8	1	0.0	1.008
1812	opls_806	1	SiO2	Ha8	1	0.0	1.008
1813	opls_806	1	SiO2	Ha8	1	0.0	1.008
1814	opls_806	1	SiO2	Ha8	1	0.0	1.008
1815	opls_806	1	SiO2	Ha8	1	0.0	1.008
1816	opls_806	1	SiO2	Ha8	1	0.0	1.008
1817	opls_806	1	SiO2	Ha8	1	0.0	1.008
1818	opls_806	1	SiO2	Ha8	1	0.0	1.008
1819	opls_806	1	SiO2	Ha8	1	0.0	1.008
1820	opls_806	1	SiO2	Ha8	1	0.0	1.008
1821	opls_806	1	SiO2	Ha8	1	0.0	1.008
1822	opls_806	1	SiO2	Ha8	1	0.0	1.008
1823	opls_806	1	SiO2	Ha8	1	0.0	1.008
1824	opls_806	1	SiO2	Ha8	1	0.0	1.008
1825	opls_806	1	SiO2	Ha8	1	0.0	1.008
1826	opls_806	1	SiO2	Ha8	1	0.0	1.008
1827	opls_806	1	SiO2	Ha8	1	0.0	1.008
1828	opls_806	1	SiO2	Ha8	1	0.0	1.008
1829	opls_806	1	SiO2	Ha8	1	0.0	1.008
1830	opls_806	1	SiO2	Ha8	1	0.0	1.008
1831	opls_806	1	SiO2	Ha8	1	0.0	1.008
1832	opls_806	1	SiO2	Ha8	1	0.0	1.008
1833	opls_806	1	SiO2	Ha8	1	0.0	1.008
1834	opls_806	1	SiO2	Ha8	1	0.0	1.008
1835	opls_806	1	SiO2	Ha8	1	0.0	1.008
1836	opls_806	1	SiO2	Ha8	1	0.0	1.008
1837	opls_806	1	SiO2	Ha8	1	0.0	1.008
1838	opls_806	1	SiO2	Ha8	1	0.0	1.008
1839	opls_806	1	SiO2	Ha8	1	0.0	1.008
1840	opls_806	1	SiO2	Ha8	1	0.0	1.008
1841	opls_806	1	SiO2	Ha8	1	0.0	1.008
1842	opls_806	1	SiO2	Ha8	1	0.0	1.008
1843	opls_806	1	SiO2	Ha8	1	0.0	1.008
1844	opls_806	1	SiO2	Ha8	1	0.0	1.008
1845	opls_806	1	SiO2	Ha8	1	0.0	1.008
1846	opls_806	1	SiO2	Ha8	1	0.0	1.008
1847	opls_806	1	SiO2	Ha8	1	0.0	1.008
1848	opls_806	1	SiO2	Ha8	1	0.0	1.008
1849	opls_806	1	SiO2	Ha8	1	0.0	1.008
1850	opls_806	1	SiO2	Ha8	1	0.0	1.008
1851	opls_806	1	SiO2	Ha8	1	0.0	1.008
1852	opls_806	1	SiO2	Ha8	1	0.0	1.008
1853	opls_806	1	SiO2	Ha8	1	0.0	1.008
1854	opls_806	1	SiO2	Ha8	1	0.0	1.008
1855	opls_806	1	SiO2	Ha8	1	0.0	1.008
1856	opls_806	1	SiO2	Ha8	1	0.0	1.008
1857	opls_806	1	SiO2	Ha8	1	0.0	1.008
1858	opls_806	1	SiO2	Ha8	1	0.0	1.008
1859	opls_806	1	SiO2	Ha8	1	0.0	1.008
1860	opls_806	1	SiO2	Ha8	1	0.0	1.008
1861	opls_806	1	SiO2	Ha8	1	0.0	1.008
1862	opls_806	1	SiO2	Ha8	1	0.0	1.008
1863	opls_806	1	SiO2	Ha8	1	0.0	1.008
1864	opls_806	1	SiO2	Ha8	1	0.0	1.008
1865	opls_806	1	SiO2	Ha8	1	0.0	1.008
1866	opls_806	1	SiO2	Ha8	1	0.0	1.008
1867	opls_806	1	SiO2	Ha8	1	0.0	1.008
1868	opls_806	1	SiO2	Ha8	1	0.0	1.008
1869	opls_806	1	SiO2	Ha8	1	0.0	1.008
1870	opls_806	1	SiO2	Ha8	1	0.0	1.008
1871	opls_806	1	SiO2	Ha8	1	0.0	1.008
1872	opls_806	1	SiO2	Ha8	1	0.0	1.008
1873	opls_806	1	SiO2	Ha8	1	0.0	1.008
1874	opls_806	1	SiO2	Ha8	1	0.0	1.008
1875	opls_806	1	SiO2	Ha8	1	0.0	1.008
1876	opls_806	1	SiO2	Ha8	1	0.0	1.008
1877	opls_806	1	SiO2	Ha8	1	0.0	1.008
1878	opls_806	1	SiO2	Ha8	1	0.0	1.008
1879	opls_806	1	SiO2	Ha8	1	0.0	1.008
1880	opls_806	1	SiO2	Ha8	1	0.0	1.008
1881	opls_806	1	SiO2	Ha8	1	0.0	1.008
1882	opls_806	1	SiO2	Ha8	1	0.0	1.008
1883	opls_806	1	SiO2	Ha8	1	0.0	1.008
1884	opls_806	1	SiO2	Ha8	1	0.0	1.008
1885	opls_806	1	SiO2	Ha8	1	0.0	1.008
1886	opls_806	1	SiO2	Ha8	1	0.0	1.008
1887	opls_806	1	SiO2	Ha8	1	0.0	1.008
1888	opls_806	1	SiO2	Ha8	1	0.0	1.008
1889	opls_806	1	SiO2	Ha8	1	0.0	1.008
1890	opls_806	1	SiO2	Ha8	1	0.0	1.008
1891	opls_806	1	SiO2	Ha8	1	0.0	1.008
1892	opls_806	1	SiO2	Ha8	1	0.0	1.008
1893	opls_806	1	SiO2	Ha8	1	0.0	1.008
1894	opls_806	1	SiO2	Ha8	1	0.0	1.008
1895	opls_806	1	SiO2	Ha8	1	0.0	1.008
1896	opls_806	1	SiO2	Ha8	1	0.0	1.008
1897	opls_806	1	SiO2	Ha8	1	0.0	1.008
1898	opls_806	1	SiO2	Ha8	1	0.0	1.008
1899	opls_806	1	SiO2	Ha8	1	0.0	1.008
1900	opls_806	1	SiO2	Ha8	1	0.0	1.008
1901	opls_806	1	SiO2	Ha8	1	0.0	1.008
1902	opls_806	1	SiO2	Ha8	1	0.0	1.008
1903	opls_806	1	SiO2	Ha8	1	0.0	1.008
1904	opls_806	1	SiO2	Ha8	1	0.0	1.008
1905	opls_806	1	SiO2	Ha8	1	0.0	1.008
1906	opls_806	1	SiO2	Ha8	1	0.0	1.008
1907	opls_806	1	SiO2	Ha8	1	0.0	1.008
1908	opls_806	1	SiO2	Ha8	1	0.0	1.008
1909	opls_806	1	SiO2	Ha8	1	0.0	1.008
1910	opls_806	1	SiO2	Ha8	1	0.0	1.008
1911	opls_806	1	SiO2	Ha8	1	0.0	1.008
1912	opls_806	1	SiO2	Ha8	1	0.0	1.008
1913	opls_806	1	SiO2	Ha8	1	0.0	1.008
1914	opls_806	1	SiO2	Ha8	1	0.0	1.008
1915	opls_806	1	SiO2	Ha8	1	0.0	1.008
1916	opls_806	1	SiO2	Ha8	1	0.0	1.008
1917	opls_806	1	SiO2	Ha8	1	0.0	1.008
1918	opls_806	1	SiO2	Ha8	1	0.0	1.008
1919	opls_806	1	SiO2	Ha8	1	0.0	1.008
1920	opls_806	1	SiO2	Ha8	1	0.0	1.008
1921	opls_806	1	SiO2	Ha8	1	0.0	1.008
1922	opls_806	1	SiO2	Ha8	1	0.0	1.008
1923	opls_806	1	SiO2	Ha8	1	0.0	1.008
1924	opls_806	1	SiO2	Ha8	1	0.0	1.008
1925	opls_806	1	SiO2	Ha8	1	0.0	1.008
1926	opls_806	1	SiO2	Ha8	1	0.0	1.008
1927	opls_806	1	SiO2	Ha8	1	0.0	1.008
1928	opls_806	1	SiO2	Ha8	1	0.0	1.008
1929	opls_806	1	SiO2	Ha8	1	0.0	1.008
1930	opls_806	1	SiO2	Ha8	1	0.0	1.008
1931	opls_806	1	SiO2	Ha8	1	0.0	1.008
1932	opls_806	1	SiO2	Ha8	1	0.0	1.008
1933	opls_806	1	SiO2	Ha8	1	0.0	1.008
1934	opls_806	1	SiO2	Ha8	1	0.0	1.008
1935	opls_806	1	SiO2	Ha8	1	0.0	1.008
1936	opls_806	1	SiO2	Ha8	1	0.0	1.008
1937	opls_806	1	SiO2	Ha8	1	0.0	1.008
1938	opls_806	1	SiO2	Ha8	1	0.0	1.008
1939	opls_806	1	SiO2	Ha8	1	0.0	1.008
1940	opls_806	1	SiO2	Ha8	1	0.0	1.008
1941	opls_806	1	SiO2	Ha8	1	0.0	1.008
1942	opls_806	1	SiO2	Ha8	1	0.0	1.008
1943	opls_806	1	SiO2	Ha8	1	0.0	1.008
1944	opls_806	1	SiO2	Ha8	1	0.0	1.008
1945	opls_806	1	SiO2	Ha8	1	0.0	1.008
1946	opls_806	1	SiO2	Ha8	1	0.0	1.008
1947	opls_806	1	SiO2	Ha8	1	0.0	1.008
1948	opls_806	1	SiO2	Ha8	1	0.0	1.008
1949	opls_806	1	SiO2	Ha8	1	0.0	1.008
1950	opls_806	1	SiO2	Ha8	1	0.0	1.008
1951	opls_806	1	SiO2	Ha8	1	0.0	1.008
1952	opls_806	1	SiO2	Ha8	1	0.0	1.008
1953	opls_806	1	SiO2	Ha8	1	0.0	1.008
1954	opls_806	1	SiO2	Ha8	1	0.0	1.008
1955	opls_806	1	SiO2	Ha8	1	0.0	1.008
1956	opls_806	1	SiO2	Ha8	1	0.0	1.008
1957	opls_806	1	SiO2	Ha8	1	0.0	1.008
1958	opls_806	1	SiO2	Ha8	1	0.0	1.008
1959	opls_806	1	SiO2	Ha8	1	0.0	1.008
1960	opls_806	1	SiO2	Ha8	1	0.0	1.008
1961	opls_806	1	SiO2	Ha8	1	0.0	1.008
1962	opls_806	1	SiO2	Ha8	1	0.0	1.008
1963	opls_806	1	SiO2	Ha8	1	0.0	1.008
1964	opls_806	1	SiO2	Ha8	1	0.0	1.008
1965	opls_806	1	SiO2	Ha8	1	0.0	1.008
1966	opls_806	1	SiO2	Ha8	1	0.0	1.008
1967	opls_806	1	SiO2	Ha8	1	0.0	1.008
1968	opls_806	1	SiO2	Ha8	1	0.0	1.008
1969	opls_806	1	SiO2	Ha8	1	0.0	1.008
1970	opls_806	1	SiO2	Ha8	1	0.0	1.008
1971	opls_806	1	SiO2	Ha8	1	0.0	1.008
1972	opls_806	1	SiO2	Ha8	1	0.0	1.008
1973	opls_806	1	SiO2	Ha8	1	0.0	1.008
1974	opls_806	1	SiO2	Ha8	1	0.0	1.008
1975	opls_806	1	SiO2	Ha8	1	0.0	1.008
1976	opls_806	1	SiO2	Ha8	1	0.0	1.008
1977	opls_806	1	SiO2	Ha8	1	0.0	1.008
1978	opls_806	1	SiO2	Ha8	1	0.0	1.008
1979	opls_806	1	SiO2	Ha8	1	0.0	1.008
1980	opls_806	1	SiO2	Ha8	1	0.0	1.008
1981	opls_806	1	SiO2	Ha8	1	0.0	1.008
1982	opls_806	1	SiO2	Ha8	1	0.0	1.008
1983	opls_806	1	SiO2	Ha8	1	0.0	1.008
1984	opls_806	1	SiO2	Ha8	1	0.0	1.008
1985	opls_800	1	NGb	C00	1	0.0	12.0110
1986	opls_801	1	NGb	N01	1	0.0	14.0070
1987	opls_802	1	NGb	C02	1	0.0	12.0110
1988	opls_803	1	NGb	C03	1	0.0	12.0110
1989	opls_804	1	NGb	O04	1	0.0	15.9990
1990	opls_805	1	NGb	C05	1	0.0	12.0110
1991	opls_806	1	NGb	C06	1	0.0	12.0110
1992	opls_807	1	NGb	C07	1	0.0	12.0110
1993	opls_808	1	NGb	C08	1	0.0	12.0110
1994	opls_809	1	NGb	C09	1	0.0	12.0110
1995	opls_810	1	NGb	C0A	1	0.0	12.0110
1996	opls_811	1	NGb	C0B	1	0.0	12.0110
1997	opls_812	1	NGb	C0C	1	0.0	12.0110
1998	opls_new	1	NGb	DUM	1	0.0	1.0
1999	opls_814	1	NGb	C0E	1	0.0	12.0110
2000	opls_815	1	NGb	C0F	1	0.0	12.0110
2001	opls_816	1	NGb	C0G	1	0.0	12.0110
2002	opls_817	1	NGb	C0H	1	0.0	12.0110
2003	opls_818	1	NGb	C0I	1	0.0	12.0110
2004	opls_819	1	NGb	C0J	1	0.0	12.0110
2005	opls_820	1	NGb	C0K	1	0.0	12.0110
2006	opls_821	1	NGb	C0M	1	0.0	12.0110
2007	opls_822	1	NGb	C0N	1	0.0	12.0110
2008	opls_823	1	NGb	C0O	1	0.0	12.0110
2009	opls_824	1	NGb	C0P	1	0.0	12.0110
2010	opls_825	1	NGb	C0Q	1	0.0	12.0110
2011	opls_826	1	NGb	C0R	1	0.0	12.0110
2012	opls_827	1	NGb	C0S	1	0.0	12.0110
2013	opls_828	1	NGb	C0T	1	0.0	12.0110
2014	opls_829	1	NGb	C0U	1	0.0	12.0110
2015	opls_830	1	NGb	C0V	1	0.0	12.0110
2016	opls_831	1	NGb	C0W	1	0.0	12.0110
2017	opls_832	1	NGb	C0X	2	0.0	12.0110
2018	opls_833	1	NGb	N0Y	2	0.0	14.0070
2019	opls_834	1	NGb	C0Z	2	0.0	12.0110
2020	opls_835	1	NGb	C10	2	0.0	12.0110
2021	opls_836	1	NGb	C11	2	0.0	12.0110
2022	opls_837	1	NGb	N12	2	0.0	14.0070
2023	opls_838	1	NGb	C13	2	0.0	12.0110
2024	opls_839	1	NGb	N14	2	0.0	14.0070
2025	opls_840	1	NGb	O15	2	0.0	15.9990
2026	opls_841	1	NGb	C16	2	0.0	12.0110
2027	opls_842	1	NGb	C17	2	0.0	12.0110
2028	opls_843	1	NGb	C18	2	0.0	12.0110
2029	opls_844	1	NGb	C19	2	0.0	12.0110
2030	opls_845	1	NGb	C1A	2	0.0	12.0110
2031	opls_846	1	NGb	C1B	2	0.0	12.0110
2032	opls_847	1	NGb	C1C	2	0.0	12.0110
2033	opls_848	1	NGb	C1D	2	0.0	12.0110
2034	opls_849	1	NGb	F1E	2	0.0	18.9984
2035	opls_850	1	NGb	F1F	2	0.0	18.9984
2036	opls_851	1	NGb	F1G	2	0.0	18.9984
2037	opls_852	1	NGb	C1H	2	0.0	12.0110
2038	opls_853	1	NGb	C1I	2	0.0	12.0110
2039	opls_854	1	NGb	C1J	2	0.0	12.0110
2040	opls_855	1	NGb	C1K	2	0.0	12.0110
2041	opls_856	1	NGb	C1M	2	0.0	12.0110
2042	opls_857	1	NGb	C1N	2	0.0	12.0110
2043	opls_858	1	NGb	C1O	2	0.0	12.0110
2044	opls_859	1	NGb	H1P	2	0.0	1.0080
2045	opls_860	1	NGb	H1Q	2	0.0	1.0080
2046	opls_861	1	NGb	H1R	2	0.0	1.0080
2047	opls_862	1	NGb	H1S	2	0.0	1.0080
2048	opls_863	1	NGb	H1T	2	0.0	1.0080
2049	opls_864	1	NGb	H1U	2	0.0	1.0080
2050	opls_865	1	NGb	H1V	3	0.0	1.0080
2051	opls_866	1	NGb	H1W	3	0.0	1.0080
2052	opls_867	1	NGb	H1X	3	0.0	1.0080
2053	opls_868	1	NGb	H1Y	3	0.0	1.0080
2054	opls_869	1	NGb	H1Z	3	0.0	1.0080
2055	opls_new	1	NGb	DUM	1	0.0	1.0
2056	opls_871	1	NGb	H21	3	0.0	1.0080
2057	opls_872	1	NGb	H22	3	0.0	1.0080
2058	opls_873	1	NGb	H23	3	0.0	1.0080
2059	opls_874	1	NGb	H24	3	0.0	1.0080
2060	opls_875	1	NGb	H25	3	0.0	1.0080
2061	opls_876	1	NGb	H26	3	0.0	1.0080
2062	opls_877	1	NGb	H27	3	0.0	1.0080
2063	opls_878	1	NGb	H28	3	0.0	1.0080
2064	opls_879	1	NGb	H29	3	0.0	1.0080
2065	opls_880	1	NGb	H2A	3	0.0	1.0080
2066	opls_881	1	NGb	H2B	3	0.0	1.0080
2067	opls_882	1	NGb	H2C	3	0.0	1.0080
2068	opls_883	1	NGb	H2D	3	0.0	1.0080
2069	opls_884	1	NGb	H2E	3	0.0	1.0080
2070	opls_885	1	NGb	H2F	3	0.0	1.0080
2071	opls_886	1	NGb	H2G	3	0.0	1.0080
2072	opls_887	1	NGb	H2H	3	0.0	1.0080
2073	opls_888	1	NGb	H2I	3	0.0	1.0080
2074	opls_889	1	NGb	H2J	3	0.0	1.0080
2075	opls_890	1	NGb	H2K	3	0.0	1.0080
2076	opls_891	1	NGb	H2M	3	0.0	1.0080
2077	opls_892	1	NGb	H2N	3	0.0	1.0080
2078	opls_893	1	NGb	H2O	3	0.0	1.0080
2079	opls_894	1	NGb	H2P	3	0.0	1.0080
2080	opls_895	1	NGb	H2Q	3	0.0	1.0080
2081	opls_896	1	NGb	H2R	3	0.0	1.0080
2082	opls_897	1	NGb	H2S	3	0.0	1.0080
2083	opls_898	1	NGb	H2T	4	0.0	1.0080
2084	opls_899	1	NGb	H2U	4	0.0	1.0080
2085	opls_800	1	NGb	C00	1	0.0	12.0110
2086	opls_801	1	NGb	N01	1	0.0	14.0070
2087	opls_802	1	NGb	C02	1	0.0	12.0110
2088	opls_803	1	NGb	C03	1	0.0	12.0110
2089	opls_804	1	NGb	O04	1	0.0	15.9990
2090	opls_805	1	NGb	C05	1	0.0	12.0110
2091	opls_806	1	NGb	C06	1	0.0	12.0110
2092	opls_807	1	NGb	C07	1	0.0	12.0110
2093	opls_808	1	NGb	C08	1	0.0	12.0110
2094	opls_809	1	NGb	C09	1	0.0	12.0110
2095	opls_810	1	NGb	C0A	1	0.0	12.0110
2096	opls_811	1	NGb	C0B	1	0.0	12.0110
2097	opls_812	1	NGb	C0C	1	0.0	12.0110
2098	opls_new	1	NGb	DUM	1	0.0	1.0
2099	opls_814	1	NGb	C0E	1	0.0	12.0110
2100	opls_815	1	NGb	C0F	1	0.0	12.0110
2101	opls_816	1	NGb	C0G	1	0.0	12.0110
2102	opls_817	1	NGb	C0H	1	0.0	12.0110
2103	opls_818	1	NGb	C0I	1	0.0	12.0110
2104	opls_819	1	NGb	C0J	1	0.0	12.0110
2105	opls_820	1	NGb	C0K	1	0.0	12.0110
2106	opls_821	1	NGb	C0M	1	0.0	12.0110
2107	opls_822	1	NGb	C0N	1	0.0	12.0110
2108	opls_823	1	NGb	C0O	1	0.0	12.0110
2109	opls_824	1	NGb	C0P	1	0.0	12.0110
2110	opls_825	1	NGb	C0Q	1	0.0	12.0110
2111	opls_826	1	NGb	C0R	1	0.0	12.0110
2112	opls_827	1	NGb	C0S	1	0.0	12.0110
2113	opls_828	1	NGb	C0T	1	0.0	12.0110
2114	opls_829	1	NGb	C0U	1	0.0	12.0110
2115	opls_830	1	NGb	C0V	1	0.0	12.0110
2116	opls_831	1	NGb	C0W	1	0.0	12.0110
2117	opls_832	1	NGb	C0X	2	0.0	12.0110
2118	opls_833	1	NGb	N0Y	2	0.0	14.0070
2119	opls_834	1	NGb	C0Z	2	0.0	12.0110
2120	opls_835	1	NGb	C10	2	0.0	12.0110
2121	opls_836	1	NGb	C11	2	0.0	12.0110
2122	opls_837	1	NGb	N12	2	0.0	14.0070
2123	opls_838	1	NGb	C13	2	0.0	12.0110
2124	opls_839	1	NGb	N14	2	0.0	14.0070
2125	opls_840	1	NGb	O15	2	0.0	15.9990
2126	opls_841	1	NGb	C16	2	0.0	12.0110
2127	opls_842	1	NGb	C17	2	0.0	12.0110
2128	opls_843	1	NGb	C18	2	0.0	12.0110
2129	opls_844	1	NGb	C19	2	0.0	12.0110
2130	opls_845	1	NGb	C1A	2	0.0	12.0110
2131	opls_846	1	NGb	C1B	2	0.0	12.0110
2132	opls_847	1	NGb	C1C	2	0.0	12.0110
2133	opls_848	1	NGb	C1D	2	0.0	12.0110
2134	opls_849	1	NGb	F1E	2	0.0	18.9984
2135	opls_850	1	NGb	F1F	2	0.0	18.9984
2136	opls_851	1	NGb	F1G	2	0.0	18.9984
2137	opls_852	1	NGb	C1H	2	0.0	12.0110
2138	opls_853	1	NGb	C1I	2	0.0	12.0110
2139	opls_854	1	NGb	C1J	2	0.0	12.0110
2140	opls_855	1	NGb	C1K	2	0.0	12.0110
2141	opls_856	1	NGb	C1M	2	0.0	12.0110
2142	opls_857	1	NGb	C1N	2	0.0	12.0110
2143	opls_858	1	NGb	C1O	2	0.0	12.0110
2144	opls_859	1	NGb	H1P	2	0.0	1.0080
2145	opls_860	1	NGb	H1Q	2	0.0	1.0080
2146	opls_861	1	NGb	H1R	2	0.0	1.0080
2147	opls_862	1	NGb	H1S	2	0.0	1.0080
2148	opls_863	1	NGb	H1T	2	0.0	1.0080
2149	opls_864	1	NGb	H1U	2	0.0	1.0080
2150	opls_865	1	NGb	H1V	3	0.0	1.0080
2151	opls_866	1	NGb	H1W	3	0.0	1.0080
2152	opls_867	1	NGb	H1X	3	0.0	1.0080
2153	opls_868	1	NGb	H1Y	3	0.0	1.0080
2154	opls_869	1	NGb	H1Z	3	0.0	1.0080
2155	opls_new	1	NGb	DUM	1	0.0	1.0
2156	opls_871	1	NGb	H21	3	0.0	1.0080
2157	opls_872	1	NGb	H22	3	0.0	1.0080
2158	opls_873	1	NGb	H23	3	0.0	1.0080
2159	opls_874	1	NGb	H24	3	0.0	1.0080
2160	opls_875	1	NGb	H25	3	0.0	1.0080
2161	opls_876	1	NGb	H26	3	0.0	1.0080
2162	opls_877	1	NGb	H27	3	0.0	1.0080
2163	opls_878	1	NGb	H28	3	0.0	1.0080
2164	opls_879	1	NGb	H29	3	0.0	1.0080
2165	opls_880	1	NGb	H2A	3	0.0	1.0080
2166	opls_881	1	NGb	H2B	3	0.0	1.0080
2167	opls_882	1	NGb	H2C	3	0.0	1.0080
2168	opls_883	1	NGb	H2D	3	0.0	1.0080
2169	opls_884	1	NGb	H2E	3	0.0	1.0080
2170	opls_885	1	NGb	H2F	3	0.0	1.0080
2171	opls_886	1	NGb	H2G	3	0.0	1.0080
2172	opls_887	1	NGb	H2H	3	0.0	1.0080
2173	opls_888	1	NGb	H2I	3	0.0	1.0080
2174	opls_889	1	NGb	H2J	3	0.0	1.0080
2175	opls_890	1	NGb	H2K	3	0.0	1.0080
2176	opls_891	1	NGb	H2M	3	0.0	1.0080
2177	opls_892	1	NGb	H2N	3	0.0	1.0080
2178	opls_893	1	NGb	H2O	3	0.0	1.0080
2179	opls_894	1	NGb	H2P	3	0.0	1.0080
2180	opls_895	1	NGb	H2Q	3	0.0	1.0080
2181	opls_896	1	NGb	H2R	3	0.0	1.0080
2182	opls_897	1	NGb	H2S	3	0.0	1.0080
2183	opls_898	1	NGb	H2T	4	0.0	1.0080
2184	opls_899	1	NGb	H2U	4	0.0	1.0080
2185	opls_800	1	NGb	C00	1	0.0	12.0110
2186	opls_801	1	NGb	N01	1	0.0	14.0070
2187	opls_802	1	NGb	C02	1	0.0	12.0110
2188	opls_803	1	NGb	C03	1	0.0	12.0110
2189	opls_804	1	NGb	O04	1	0.0	15.9990
2190	opls_805	1	NGb	C05	1	0.0	12.0110
2191	opls_806	1	NGb	C06	1	0.0	12.0110
2192	opls_807	1	NGb	C07	1	0.0	12.0110
2193	opls_808	1	NGb	C08	1	0.0	12.0110
2194	opls_809	1	NGb	C09	1	0.0	12.0110
2195	opls_810	1	NGb	C0A	1	0.0	12.0110
2196	opls_811	1	NGb	C0B	1	0.0	12.0110
2197	opls_812	1	NGb	C0C	1	0.0	12.0110
2198	opls_new	1	NGb	DUM	1	0.0	1.0
2199	opls_814	1	NGb	C0E	1	0.0	12.0110
2200	opls_815	1	NGb	C0F	1	0.0	12.0110
2201	opls_816	1	NGb	C0G	1	0.0	12.0110
2202	opls_817	1	NGb	C0H	1	0.0	12.0110
2203	opls_818	1	NGb	C0I	1	0.0	12.0110
2204	opls_819	1	NGb	C0J	1	0.0	12.0110
2205	opls_820	1	NGb	C0K	1	0.0	12.0110
2206	opls_821	1	NGb	C0M	1	0.0	12.0110
2207	opls_822	1	NGb	C0N	1	0.0	12.0110
2208	opls_823	1	NGb	C0O	1	0.0	12.0110
2209	opls_824	1	NGb	C0P	1	0.0	12.0110
2210	opls_825	1	NGb	C0Q	1	0.0	12.0110
2211	opls_826	1	NGb	C0R	1	0.0	12.0110
2212	opls_827	1	NGb	C0S	1	0.0	12.0110
2213	opls_828	1	NGb	C0T	1	0.0	12.0110
2214	opls_829	1	NGb	C0U	1	0.0	12.0110
2215	opls_830	1	NGb	C0V	1	0.0	12.0110
2216	opls_831	1	NGb	C0W	1	0.0	12.0110
2217	opls_832	1	NGb	C0X	2	0.0	12.0110
2218	opls_833	1	NGb	N0Y	2	0.0	14.0070
2219	opls_834	1	NGb	C0Z	2	0.0	12.0110
2220	opls_835	1	NGb	C10	2	0.0	12.0110
2221	opls_836	1	NGb	C11	2	0.0	12.0110
2222	opls_837	1	NGb	N12	2	0.0	14.0070
2223	opls_838	1	NGb	C13	2	0.0	12.0110
2224	opls_839	1	NGb	N14	2	0.0	14.0070
2225	opls_840	1	NGb	O15	2	0.0	15.9990
2226	opls_841	1	NGb	C16	2	0.0	12.0110
2227	opls_842	1	NGb	C17	2	0.0	12.0110
2228	opls_843	1	NGb	C18	2	0.0	12.0110
2229	opls_844	1	NGb	C19	2	0.0	12.0110
2230	opls_845	1	NGb	C1A	2	0.0	12.0110
2231	opls_846	1	NGb	C1B	2	0.0	12.0110
2232	opls_847	1	NGb	C1C	2	0.0	12.0110
2233	opls_848	1	NGb	C1D	2	0.0	12.0110
2234	opls_849	1	NGb	F1E	2	0.0	18.9984
2235	opls_850	1	NGb	F1F	2	0.0	18.9984
2236	opls_851	1	NGb	F1G	2	0.0	18.9984
2237	opls_852	1	NGb	C1H	2	0.0	12.0110
2238	opls_853	1	NGb	C1I	2	0.0	12.0110
2239	opls_854	1	NGb	C1J	2	0.0	12.0110
2240	opls_855	1	NGb	C1K	2	0.0	12.0110
2241	opls_856	1	NGb	C1M	2	0.0	12.0110
2242	opls_857	1	NGb	C1N	2	0.0	12.0110
2243	opls_858	1	NGb	C1O	2	0.0	12.0110
2244	opls_859	1	NGb	H1P	2	0.0	1.0080
2245	opls_860	1	NGb	H1Q	2	0.0	1.0080
2246	opls_861	1	NGb	H1R	2	0.0	1.0080
2247	opls_862	1	NGb	H1S	2	0.0	1.0080
2248	opls_863	1	NGb	H1T	2	0.0	1.0080
2249	opls_864	1	NGb	H1U	2	0.0	1.0080
2250	opls_865	1	NGb	H1V	3	0.0	1.0080
2251	opls_866	1	NGb	H1W	3	0.0	1.0080
2252	opls_867	1	NGb	H1X	3	0.0	1.0080
2253	opls_868	1	NGb	H1Y	3	0.0	1.0080
2254	opls_869	1	NGb	H1Z	3	0.0	1.0080
2255	opls_new	1	NGb	DUM	1	0.0	1.0
2256	opls_871	1	NGb	H21	3	0.0	1.0080
2257	opls_872	1	NGb	H22	3	0.0	1.0080
2258	opls_873	1	NGb	H23	3	0.0	1.0080
2259	opls_874	1	NGb	H24	3	0.0	1.0080
2260	opls_875	1	NGb	H25	3	0.0	1.0080
2261	opls_876	1	NGb	H26	3	0.0	1.0080
2262	opls_877	1	NGb	H27	3	0.0	1.0080
2263	opls_878	1	NGb	H28	3	0.0	1.0080
2264	opls_879	1	NGb	H29	3	0.0	1.0080
2265	opls_880	1	NGb	H2A	3	0.0	1.0080
2266	opls_881	1	NGb	H2B	3	0.0	1.0080
2267	opls_882	1	NGb	H2C	3	0.0	1.0080
2268	opls_883	1	NGb	H2D	3	0.0	1.0080
2269	opls_884	1	NGb	H2E	3	0.0	1.0080
2270	opls_885	1	NGb	H2F	3	0.0	1.0080
2271	opls_886	1	NGb	H2G	3	0.0	1.0080
2272	opls_887	1	NGb	H2H	3	0.0	1.0080
2273	opls_888	1	NGb	H2I	3	0.0	1.0080
2274	opls_889	1	NGb	H2J	3	0.0	1.0080
2275	opls_890	1	NGb	H2K	3	0.0	1.0080
2276	opls_891	1	NGb	H2M	3	0.0	1.0080
2277	opls_892	1	NGb	H2N	3	0.0	1.0080
2278	opls_893	1	NGb	H2O	3	0.0	1.0080
2279	opls_894	1	NGb	H2P	3	0.0	1.0080
2280	opls_895	1	NGb	H2Q	3	0.0	1.0080
2281	opls_896	1	NGb	H2R	3	0.0	1.0080
2282	opls_897	1	NGb	H2S	3	0.0	1.0080
2283	opls_898	1	NGb	H2T	4	0.0	1.0080
2284	opls_899	1	NGb	H2U	4	0.0	1.0080
2285	opls_800	1	NGb	C00	1	0.0	12.0110
2286	opls_801	1	NGb	N01	1	0.0	14.0070
2287	opls_802	1	NGb	C02	1	0.0	12.0110
2288	opls_803	1	NGb	C03	1	0.0	12.0110
2289	opls_804	1	NGb	O04	1	0.0	15.9990
2290	opls_805	1	NGb	C05	1	0.0	12.0110
2291	opls_806	1	NGb	C06	1	0.0	12.0110
2292	opls_807	1	NGb	C07	1	0.0	12.0110
2293	opls_808	1	NGb	C08	1	0.0	12.0110
2294	opls_809	1	NGb	C09	1	0.0	12.0110
2295	opls_810	1	NGb	C0A	1	0.0	12.0110
2296	opls_811	1	NGb	C0B	1	0.0	12.0110
2297	opls_812	1	NGb	C0C	1	0.0	12.0110
2298	opls_new	1	NGb	DUM	1	0.0	1.0
2299	opls_814	1	NGb	C0E	1	0.0	12.0110
2300	opls_815	1	NGb	C0F	1	0.0	12.0110
2301	opls_816	1	NGb	C0G	1	0.0	12.0110
2302	opls_817	1	NGb	C0H	1	0.0	12.0110
2303	opls_818	1	NGb	C0I	1	0.0	12.0110
2304	opls_819	1	NGb	C0J	1	0.0	12.0110
2305	opls_820	1	NGb	C0K	1	0.0	12.0110
2306	opls_821	1	NGb	C0M	1	0.0	12.0110
2307	opls_822	1	NGb	C0N	1	0.0	12.0110
2308	opls_823	1	NGb	C0O	1	0.0	12.0110
2309	opls_824	1	NGb	C0P	1	0.0	12.0110
2310	opls_825	1	NGb	C0Q	1	0.0	12.0110
2311	opls_826	1	NGb	C0R	1	0.0	12.0110
2312	opls_827	1	NGb	C0S	1	0.0	12.0110
2313	opls_828	1	NGb	C0T	1	0.0	12.0110
2314	opls_829	1	NGb	C0U	1	0.0	12.0110
2315	opls_830	1	NGb	C0V	1	0.0	12.0110
2316	opls_831	1	NGb	C0W	1	0.0	12.0110
2317	opls_832	1	NGb	C0X	2	0.0	12.0110
2318	opls_833	1	NGb	N0Y	2	0.0	14.0070
2319	opls_834	1	NGb	C0Z	2	0.0	12.0110
2320	opls_835	1	NGb	C10	2	0.0	12.0110
2321	opls_836	1	NGb	C11	2	0.0	12.0110
2322	opls_837	1	NGb	N12	2	0.0	14.0070
2323	opls_838	1	NGb	C13	2	0.0	12.0110
2324	opls_839	1	NGb	N14	2	0.0	14.0070
2325	opls_840	1	NGb	O15	2	0.0	15.9990
2326	opls_841	1	NGb	C16	2	0.0	12.0110
2327	opls_842	1	NGb	C17	2	0.0	12.0110
2328	opls_843	1	NGb	C18	2	0.0	12.0110
2329	opls_844	1	NGb	C19	2	0.0	12.0110
2330	opls_845	1	NGb	C1A	2	0.0	12.0110
2331	opls_846	1	NGb	C1B	2	0.0	12.0110
2332	opls_847	1	NGb	C1C	2	0.0	12.0110
2333	opls_848	1	NGb	C1D	2	0.0	12.0110
2334	opls_849	1	NGb	F1E	2	0.0	18.9984
2335	opls_850	1	NGb	F1F	2	0.0	18.9984
2336	opls_851	1	NGb	F1G	2	0.0	18.9984
2337	opls_852	1	NGb	C1H	2	0.0	12.0110
2338	opls_853	1	NGb	C1I	2	0.0	12.0110
2339	opls_854	1	NGb	C1J	2	0.0	12.0110
2340	opls_855	1	NGb	C1K	2	0.0	12.0110
2341	opls_856	1	NGb	C1M	2	0.0	12.0110
2342	opls_857	1	NGb	C1N	2	0.0	12.0110
2343	opls_858	1	NGb	C1O	2	0.0	12.0110
2344	opls_859	1	NGb	H1P	2	0.0	1.0080
2345	opls_860	1	NGb	H1Q	2	0.0	1.0080
2346	opls_861	1	NGb	H1R	2	0.0	1.0080
2347	opls_862	1	NGb	H1S	2	0.0	1.0080
2348	opls_863	1	NGb	H1T	2	0.0	1.0080
2349	opls_864	1	NGb	H1U	2	0.0	1.0080
2350	opls_865	1	NGb	H1V	3	0.0	1.0080
2351	opls_866	1	NGb	H1W	3	0.0	1.0080
2352	opls_867	1	NGb	H1X	3	0.0	1.0080
2353	opls_868	1	NGb	H1Y	3	0.0	1.0080
2354	opls_869	1	NGb	H1Z	3	0.0	1.0080
2355	opls_new	1	NGb	DUM	1	0.0	1.0
2356	opls_871	1	NGb	H21	3	0.0	1.0080
2357	opls_872	1	NGb	H22	3	0.0	1.0080
2358	opls_873	1	NGb	H23	3	0.0	1.0080
2359	opls_874	1	NGb	H24	3	0.0	1.0080
2360	opls_875	1	NGb	H25	3	0.0	1.0080
2361	opls_876	1	NGb	H26	3	0.0	1.0080
2362	opls_877	1	NGb	H27	3	0.0	1.0080
2363	opls_878	1	NGb	H28	3	0.0	1.0080
2364	opls_879	1	NGb	H29	3	0.0	1.0080
2365	opls_880	1	NGb	H2A	3	0.0	1.0080
2366	opls_881	1	NGb	H2B	3	0.0	1.0080
2367	opls_882	1	NGb	H2C	3	0.0	1.0080
2368	opls_883	1	NGb	H2D	3	0.0	1.0080
2369	opls_884	1	NGb	H2E	3	0.0	1.0080
2370	opls_885	1	NGb	H2F	3	0.0	1.0080
2371	opls_886	1	NGb	H2G	3	0.0	1.0080
2372	opls_887	1	NGb	H2H	3	0.0	1.0080
2373	opls_888	1	NGb	H2I	3	0.0	1.0080
2374	opls_889	1	NGb	H2J	3	0.0	1.0080
2375	opls_890	1	NGb	H2K	3	0.0	1.0080
2376	opls_891	1	NGb	H2M	3	0.0	1.0080
2377	opls_892	1	NGb	H2N	3	0.0	1.0080
2378	opls_893	1	NGb	H2O	3	0.0	1.0080
2379	opls_894	1	NGb	H2P	3	0.0	1.0080
2380	opls_895	1	NGb	H2Q	3	0.0	1.0080
2381	opls_896	1	NGb	H2R	3	0.0	1.0080
2382	opls_897	1	NGb	H2S	3	0.0	1.0080
2383	opls_898	1	NGb	H2T	4	0.0	1.0080
2384	opls_899	1	NGb	H2U	4	0.0	1.0080
2385	opls_800	1	NGb	C00	1	0.0	12.0110
2386	opls_801	1	NGb	N01	1	0.0	14.0070
2387	opls_802	1	NGb	C02	1	0.0	12.0110
2388	opls_803	1	NGb	C03	1	0.0	12.0110
2389	opls_804	1	NGb	O04	1	0.0	15.9990
2390	opls_805	1	NGb	C05	1	0.0	12.0110
2391	opls_806	1	NGb	C06	1	0.0	12.0110
2392	opls_807	1	NGb	C07	1	0.0	12.0110
2393	opls_808	1	NGb	C08	1	0.0	12.0110
2394	opls_809	1	NGb	C09	1	0.0	12.0110
2395	opls_810	1	NGb	C0A	1	0.0	12.0110
2396	opls_811	1	NGb	C0B	1	0.0	12.0110
2397	opls_812	1	NGb	C0C	1	0.0	12.0110
2398	opls_new	1	NGb	DUM	1	0.0	1.0
2399	opls_814	1	NGb	C0E	1	0.0	12.0110
2400	opls_815	1	NGb	C0F	1	0.0	12.0110
2401	opls_816	1	NGb	C0G	1	0.0	12.0110
2402	opls_817	1	NGb	C0H	1	0.0	12.0110
2403	opls_818	1	NGb	C0I	1	0.0	12.0110
2404	opls_819	1	NGb	C0J	1	0.0	12.0110
2405	opls_820	1	NGb	C0K	1	0.0	12.0110
2406	opls_821	1	NGb	C0M	1	0.0	12.0110
2407	opls_822	1	NGb	C0N	1	0.0	12.0110
2408	opls_823	1	NGb	C0O	1	0.0	12.0110
2409	opls_824	1	NGb	C0P	1	0.0	12.0110
2410	opls_825	1	NGb	C0Q	1	0.0	12.0110
2411	opls_826	1	NGb	C0R	1	0.0	12.0110
2412	opls_827	1	NGb	C0S	1	0.0	12.0110
2413	opls_828	1	NGb	C0T	1	0.0	12.0110
2414	opls_829	1	NGb	C0U	1	0.0	12.0110
2415	opls_830	1	NGb	C0V	1	0.0	12.0110
2416	opls_831	1	NGb	C0W	1	0.0	12.0110
2417	opls_832	1	NGb	C0X	2	0.0	12.0110
2418	opls_833	1	NGb	N0Y	2	0.0	14.0070
2419	opls_834	1	NGb	C0Z	2	0.0	12.0110
2420	opls_835	1	NGb	C10	2	0.0	12.0110
2421	opls_836	1	NGb	C11	2	0.0	12.0110
2422	opls_837	1	NGb	N12	2	0.0	14.0070
2423	opls_838	1	NGb	C13	2	0.0	12.0110
2424	opls_839	1	NGb	N14	2	0.0	14.0070
2425	opls_840	1	NGb	O15	2	0.0	15.9990
2426	opls_841	1	NGb	C16	2	0.0	12.0110
2427	opls_842	1	NGb	C17	2	0.0	12.0110
2428	opls_843	1	NGb	C18	2	0.0	12.0110
2429	opls_844	1	NGb	C19	2	0.0	12.0110
2430	opls_845	1	NGb	C1A	2	0.0	12.0110
2431	opls_846	1	NGb	C1B	2	0.0	12.0110
2432	opls_847	1	NGb	C1C	2	0.0	12.0110
2433	opls_848	1	NGb	C1D	2	0.0	12.0110
2434	opls_849	1	NGb	F1E	2	0.0	18.9984
2435	opls_850	1	NGb	F1F	2	0.0	18.9984
2436	opls_851	1	NGb	F1G	2	0.0	18.9984
2437	opls_852	1	NGb	C1H	2	0.0	12.0110
2438	opls_853	1	NGb	C1I	2	0.0	12.0110
2439	opls_854	1	NGb	C1J	2	0.0	12.0110
2440	opls_855	1	NGb	C1K	2	0.0	12.0110
2441	opls_856	1	NGb	C1M	2	0.0	12.0110
2442	opls_857	1	NGb	C1N	2	0.0	12.0110
2443	opls_858	1	NGb	C1O	2	0.0	12.0110
2444	opls_859	1	NGb	H1P	2	0.0	1.0080
2445	opls_860	1	NGb	H1Q	2	0.0	1.0080
2446	opls_861	1	NGb	H1R	2	0.0	1.0080
2447	opls_862	1	NGb	H1S	2	0.0	1.0080
2448	opls_863	1	NGb	H1T	2	0.0	1.0080
2449	opls_864	1	NGb	H1U	2	0.0	1.0080
2450	opls_865	1	NGb	H1V	3	0.0	1.0080
2451	opls_866	1	NGb	H1W	3	0.0	1.0080
2452	opls_867	1	NGb	H1X	3	0.0	1.0080
2453	opls_868	1	NGb	H1Y	3	0.0	1.0080
2454	opls_869	1	NGb	H1Z	3	0.0	1.0080
2455	opls_new	1	NGb	DUM	1	0.0	1.0
2456	opls_871	1	NGb	H21	3	0.0	1.0080
2457	opls_872	1	NGb	H22	3	0.0	1.0080
2458	opls_873	1	NGb	H23	3	0.0	1.0080
2459	opls_874	1	NGb	H24	3	0.0	1.0080
2460	opls_875	1	NGb	H25	3	0.0	1.0080
2461	opls_876	1	NGb	H26	3	0.0	1.0080
2462	opls_877	1	NGb	H27	3	0.0	1.0080
2463	opls_878	1	NGb	H28	3	0.0	1.0080
2464	opls_879	1	NGb	H29	3	0.0	1.0080
2465	opls_880	1	NGb	H2A	3	0.0	1.0080
2466	opls_881	1	NGb	H2B	3	0.0	1.0080
2467	opls_882	1	NGb	H2C	3	0.0	1.0080
2468	opls_883	1	NGb	H2D	3	0.0	1.0080
2469	opls_884	1	NGb	H2E	3	0.0	1.0080
2470	opls_885	1	NGb	H2F	3	0.0	1.0080
2471	opls_886	1	NGb	H2G	3	0.0	1.0080
2472	opls_887	1	NGb	H2H	3	0.0	1.0080
2473	opls_888	1	NGb	H2I	3	0.0	1.0080
2474	opls_889	1	NGb	H2J	3	0.0	1.0080
2475	opls_890	1	NGb	H2K	3	0.0	1.0080
2476	opls_891	1	NGb	H2M	3	0.0	1.0080
2477	opls_892	1	NGb	H2N	3	0.0	1.0080
2478	opls_893	1	NGb	H2O	3	0.0	1.0080
2479	opls_894	1	NGb	H2P	3	0.0	1.0080
2480	opls_895	1	NGb	H2Q	3	0.0	1.0080
2481	opls_896	1	NGb	H2R	3	0.0	1.0080
2482	opls_897	1	NGb	H2S	3	0.0	1.0080
2483	opls_898	1	NGb	H2T	4	0.0	1.0080
2484	opls_899	1	NGb	H2U	4	0.0	1.0080
2485	opls_800	1	NGb	C00	1	0.0	12.0110
2486	opls_801	1	NGb	N01	1	0.0	14.0070
2487	opls_802	1	NGb	C02	1	0.0	12.0110
2488	opls_803	1	NGb	C03	1	0.0	12.0110
2489	opls_804	1	NGb	O04	1	0.0	15.9990
2490	opls_805	1	NGb	C05	1	0.0	12.0110
2491	opls_806	1	NGb	C06	1	0.0	12.0110
2492	opls_807	1	NGb	C07	1	0.0	12.0110
2493	opls_808	1	NGb	C08	1	0.0	12.0110
2494	opls_809	1	NGb	C09	1	0.0	12.0110
2495	opls_810	1	NGb	C0A	1	0.0	12.0110
2496	opls_811	1	NGb	C0B	1	0.0	12.0110
2497	opls_812	1	NGb	C0C	1	0.0	12.0110
2498	opls_new	1	NGb	DUM	1	0.0	1.0
2499	opls_814	1	NGb	C0E	1	0.0	12.0110
2500	opls_815	1	NGb	C0F	1	0.0	12.0110
2501	opls_816	1	NGb	C0G	1	0.0	12.0110
2502	opls_817	1	NGb	C0H	1	0.0	12.0110
2503	opls_818	1	NGb	C0I	1	0.0	12.0110
2504	opls_819	1	NGb	C0J	1	0.0	12.0110
2505	opls_820	1	NGb	C0K	1	0.0	12.0110
2506	opls_821	1	NGb	C0M	1	0.0	12.0110
2507	opls_822	1	NGb	C0N	1	0.0	12.0110
2508	opls_823	1	NGb	C0O	1	0.0	12.0110
2509	opls_824	1	NGb	C0P	1	0.0	12.0110
2510	opls_825	1	NGb	C0Q	1	0.0	12.0110
2511	opls_826	1	NGb	C0R	1	0.0	12.0110
2512	opls_827	1	NGb	C0S	1	0.0	12.0110
2513	opls_828	1	NGb	C0T	1	0.0	12.0110
2514	opls_829	1	NGb	C0U	1	0.0	12.0110
2515	opls_830	1	NGb	C0V	1	0.0	12.0110
2516	opls_831	1	NGb	C0W	1	0.0	12.0110
2517	opls_832	1	NGb	C0X	2	0.0	12.0110
2518	opls_833	1	NGb	N0Y	2	0.0	14.0070
2519	opls_834	1	NGb	C0Z	2	0.0	12.0110
2520	opls_835	1	NGb	C10	2	0.0	12.0110
2521	opls_836	1	NGb	C11	2	0.0	12.0110
2522	opls_837	1	NGb	N12	2	0.0	14.0070
2523	opls_838	1	NGb	C13	2	0.0	12.0110
2524	opls_839	1	NGb	N14	2	0.0	14.0070
2525	opls_840	1	NGb	O15	2	0.0	15.9990
2526	opls_841	1	NGb	C16	2	0.0	12.0110
2527	opls_842	1	NGb	C17	2	0.0	12.0110
2528	opls_843	1	NGb	C18	2	0.0	12.0110
2529	opls_844	1	NGb	C19	2	0.0	12.0110
2530	opls_845	1	NGb	C1A	2	0.0	12.0110
2531	opls_846	1	NGb	C1B	2	0.0	12.0110
2532	opls_847	1	NGb	C1C	2	0.0	12.0110
2533	opls_848	1	NGb	C1D	2	0.0	12.0110
2534	opls_849	1	NGb	F1E	2	0.0	18.9984
2535	opls_850	1	NGb	F1F	2	0.0	18.9984
2536	opls_851	1	NGb	F1G	2	0.0	18.9984
2537	opls_852	1	NGb	C1H	2	0.0	12.0110
2538	opls_853	1	NGb	C1I	2	0.0	12.0110
2539	opls_854	1	NGb	C1J	2	0.0	12.0110
2540	opls_855	1	NGb	C1K	2	0.0	12.0110
2541	opls_856	1	NGb	C1M	2	0.0	12.0110
2542	opls_857	1	NGb	C1N	2	0.0	12.0110
2543	opls_858	1	NGb	C1O	2	0.0	12.0110
2544	opls_859	1	NGb	H1P	2	0.0	1.0080
2545	opls_860	1	NGb	H1Q	2	0.0	1.0080
2546	opls_861	1	NGb	H1R	2	0.0	1.0080
2547	opls_862	1	NGb	H1S	2	0.0	1.0080
2548	opls_863	1	NGb	H1T	2	0.0	1.0080
2549	opls_864	1	NGb	H1U	2	0.0	1.0080
2550	opls_865	1	NGb	H1V	3	0.0	1.0080
2551	opls_866	1	NGb	H1W	3	0.0	1.0080
2552	opls_867	1	NGb	H1X	3	0.0	1.0080
2553	opls_868	1	NGb	H1Y	3	0.0	1.0080
2554	opls_869	1	NGb	H1Z	3	0.0	1.0080
2555	opls_new	1	NGb	DUM	1	0.0	1.0
2556	opls_871	1	NGb	H21	3	0.0	1.0080
2557	opls_872	1	NGb	H22	3	0.0	1.0080
2558	opls_873	1	NGb	H23	3	0.0	1.0080
2559	opls_874	1	NGb	H24	3	0.0	1.0080
2560	opls_875	1	NGb	H25	3	0.0	1.0080
2561	opls_876	1	NGb	H26	3	0.0	1.0080
2562	opls_877	1	NGb	H27	3	0.0	1.0080
2563	opls_878	1	NGb	H28	3	0.0	1.0080
2564	opls_879	1	NGb	H29	3	0.0	1.0080
2565	opls_880	1	NGb	H2A	3	0.0	1.0080
2566	opls_881	1	NGb	H2B	3	0.0	1.0080
2567	opls_882	1	NGb	H2C	3	0.0	1.0080
2568	opls_883	1	NGb	H2D	3	0.0	1.0080
2569	opls_884	1	NGb	H2E	3	0.0	1.0080
2570	opls_885	1	NGb	H2F	3	0.0	1.0080
2571	opls_886	1	NGb	H2G	3	0.0	1.0080
2572	opls_887	1	NGb	H2H	3	0.0	1.0080
2573	opls_888	1	NGb	H2I	3	0.0	1.0080
2574	opls_889	1	NGb	H2J	3	0.0	1.0080
2575	opls_890	1	NGb	H2K	3	0.0	1.0080
2576	opls_891	1	NGb	H2M	3	0.0	1.0080
2577	opls_892	1	NGb	H2N	3	0.0	1.0080
2578	opls_893	1	NGb	H2O	3	0.0	1.0080
2579	opls_894	1	NGb	H2P	3	0.0	1.0080
2580	opls_895	1	NGb	H2Q	3	0.0	1.0080
2581	opls_896	1	NGb	H2R	3	0.0	1.0080
2582	opls_897	1	NGb	H2S	3	0.0	1.0080
2583	opls_898	1	NGb	H2T	4	0.0	1.0080
2584	opls_899	1	NGb	H2U	4	0.0	1.0080
2585	opls_800	1	NGb	C00	1	0.0	12.0110
2586	opls_801	1	NGb	N01	1	0.0	14.0070
2587	opls_802	1	NGb	C02	1	0.0	12.0110
2588	opls_803	1	NGb	C03	1	0.0	12.0110
2589	opls_804	1	NGb	O04	1	0.0	15.9990
2590	opls_805	1	NGb	C05	1	0.0	12.0110
2591	opls_806	1	NGb	C06	1	0.0	12.0110
2592	opls_807	1	NGb	C07	1	0.0	12.0110
2593	opls_808	1	NGb	C08	1	0.0	12.0110
2594	opls_809	1	NGb	C09	1	0.0	12.0110
2595	opls_810	1	NGb	C0A	1	0.0	12.0110
2596	opls_811	1	NGb	C0B	1	0.0	12.0110
2597	opls_812	1	NGb	C0C	1	0.0	12.0110
2598	opls_new	1	NGb	DUM	1	0.0	1.0
2599	opls_814	1	NGb	C0E	1	0.0	12.0110
2600	opls_815	1	NGb	C0F	1	0.0	12.0110
2601	opls_816	1	NGb	C0G	1	0.0	12.0110
2602	opls_817	1	NGb	C0H	1	0.0	12.0110
2603	opls_818	1	NGb	C0I	1	0.0	12.0110
2604	opls_819	1	NGb	C0J	1	0.0	12.0110
2605	opls_820	1	NGb	C0K	1	0.0	12.0110
2606	opls_821	1	NGb	C0M	1	0.0	12.0110
2607	opls_822	1	NGb	C0N	1	0.0	12.0110
2608	opls_823	1	NGb	C0O	1	0.0	12.0110
2609	opls_824	1	NGb	C0P	1	0.0	12.0110
2610	opls_825	1	NGb	C0Q	1	0.0	12.0110
2611	opls_826	1	NGb	C0R	1	0.0	12.0110
2612	opls_827	1	NGb	C0S	1	0.0	12.0110
2613	opls_828	1	NGb	C0T	1	0.0	12.0110
2614	opls_829	1	NGb	C0U	1	0.0	12.0110
2615	opls_830	1	NGb	C0V	1	0.0	12.0110
2616	opls_831	1	NGb	C0W	1	0.0	12.0110
2617	opls_832	1	NGb	C0X	2	0.0	12.0110
2618	opls_833	1	NGb	N0Y	2	0.0	14.0070
2619	opls_834	1	NGb	C0Z	2	0.0	12.0110
2620	opls_835	1	NGb	C10	2	0.0	12.0110
2621	opls_836	1	NGb	C11	2	0.0	12.0110
2622	opls_837	1	NGb	N12	2	0.0	14.0070
2623	opls_838	1	NGb	C13	2	0.0	12.0110
2624	opls_839	1	NGb	N14	2	0.0	14.0070
2625	opls_840	1	NGb	O15	2	0.0	15.9990
2626	opls_841	1	NGb	C16	2	0.0	12.0110
2627	opls_842	1	NGb	C17	2	0.0	12.0110
2628	opls_843	1	NGb	C18	2	0.0	12.0110
2629	opls_844	1	NGb	C19	2	0.0	12.0110
2630	opls_845	1	NGb	C1A	2	0.0	12.0110
2631	opls_846	1	NGb	C1B	2	0.0	12.0110
2632	opls_847	1	NGb	C1C	2	0.0	12.0110
2633	opls_848	1	NGb	C1D	2	0.0	12.0110
2634	opls_849	1	NGb	F1E	2	0.0	18.9984
2635	opls_850	1	NGb	F1F	2	0.0	18.9984
2636	opls_851	1	NGb	F1G	2	0.0	18.9984
2637	opls_852	1	NGb	C1H	2	0.0	12.0110
2638	opls_853	1	NGb	C1I	2	0.0	12.0110
2639	opls_854	1	NGb	C1J	2	0.0	12.0110
2640	opls_855	1	NGb	C1K	2	0.0	12.0110
2641	opls_856	1	NGb	C1M	2	0.0	12.0110
2642	opls_857	1	NGb	C1N	2	0.0	12.0110
2643	opls_858	1	NGb	C1O	2	0.0	12.0110
2644	opls_859	1	NGb	H1P	2	0.0	1.0080
2645	opls_860	1	NGb	H1Q	2	0.0	1.0080
2646	opls_861	1	NGb	H1R	2	0.0	1.0080
2647	opls_862	1	NGb	H1S	2	0.0	1.0080
2648	opls_863	1	NGb	H1T	2	0.0	1.0080
2649	opls_864	1	NGb	H1U	2	0.0	1.0080
2650	opls_865	1	NGb	H1V	3	0.0	1.0080
2651	opls_866	1	NGb	H1W	3	0.0	1.0080
2652	opls_867	1	NGb	H1X	3	0.0	1.0080
2653	opls_868	1	NGb	H1Y	3	0.0	1.0080
2654	opls_869	1	NGb	H1Z	3	0.0	1.0080
2655	opls_new	1	NGb	DUM	1	0.0	1.0
2656	opls_871	1	NGb	H21	3	0.0	1.0080
2657	opls_872	1	NGb	H22	3	0.0	1.0080
2658	opls_873	1	NGb	H23	3	0.0	1.0080
2659	opls_874	1	NGb	H24	3	0.0	1.0080
2660	opls_875	1	NGb	H25	3	0.0	1.0080
2661	opls_876	1	NGb	H26	3	0.0	1.0080
2662	opls_877	1	NGb	H27	3	0.0	1.0080
2663	opls_878	1	NGb	H28	3	0.0	1.0080
2664	opls_879	1	NGb	H29	3	0.0	1.0080
2665	opls_880	1	NGb	H2A	3	0.0	1.0080
2666	opls_881	1	NGb	H2B	3	0.0	1.0080
2667	opls_882	1	NGb	H2C	3	0.0	1.0080
2668	opls_883	1	NGb	H2D	3	0.0	1.0080
2669	opls_884	1	NGb	H2E	3	0.0	1.0080
2670	opls_885	1	NGb	H2F	3	0.0	1.0080
2671	opls_886	1	NGb	H2G	3	0.0	1.0080
2672	opls_887	1	NGb	H2H	3	0.0	1.0080
2673	opls_888	1	NGb	H2I	3	0.0	1.0080
2674	opls_889	1	NGb	H2J	3	0.0	1.0080
2675	opls_890	1	NGb	H2K	3	0.0	1.0080
2676	opls_891	1	NGb	H2M	3	0.0	1.0080
2677	opls_892	1	NGb	H2N	3	0.0	1.0080
2678	opls_893	1	NGb	H2O	3	0.0	1.0080
2679	opls_894	1	NGb	H2P	3	0.0	1.0080
2680	opls_895	1	NGb	H2Q	3	0.0	1.0080
2681	opls_896	1	NGb	H2R	3	0.0	1.0080
2682	opls_897	1	NGb	H2S	3	0.0	1.0080
2683	opls_898	1	NGb	H2T	4	0.0	1.0080
2684	opls_899	1	NGb	H2U	4	0.0	1.0080
2685	opls_800	1	NGb	C00	1	0.0	12.0110
2686	opls_801	1	NGb	N01	1	0.0	14.0070
2687	opls_802	1	NGb	C02	1	0.0	12.0110
2688	opls_803	1	NGb	C03	1	0.0	12.0110
2689	opls_804	1	NGb	O04	1	0.0	15.9990
2690	opls_805	1	NGb	C05	1	0.0	12.0110
2691	opls_806	1	NGb	C06	1	0.0	12.0110
2692	opls_807	1	NGb	C07	1	0.0	12.0110
2693	opls_808	1	NGb	C08	1	0.0	12.0110
2694	opls_809	1	NGb	C09	1	0.0	12.0110
2695	opls_810	1	NGb	C0A	1	0.0	12.0110
2696	opls_811	1	NGb	C0B	1	0.0	12.0110
2697	opls_812	1	NGb	C0C	1	0.0	12.0110
2698	opls_new	1	NGb	DUM	1	0.0	1.0
2699	opls_814	1	NGb	C0E	1	0.0	12.0110
2700	opls_815	1	NGb	C0F	1	0.0	12.0110
2701	opls_816	1	NGb	C0G	1	0.0	12.0110
2702	opls_817	1	NGb	C0H	1	0.0	12.0110
2703	opls_818	1	NGb	C0I	1	0.0	12.0110
2704	opls_819	1	NGb	C0J	1	0.0	12.0110
2705	opls_820	1	NGb	C0K	1	0.0	12.0110
2706	opls_821	1	NGb	C0M	1	0.0	12.0110
2707	opls_822	1	NGb	C0N	1	0.0	12.0110
2708	opls_823	1	NGb	C0O	1	0.0	12.0110
2709	opls_824	1	NGb	C0P	1	0.0	12.0110
2710	opls_825	1	NGb	C0Q	1	0.0	12.0110
2711	opls_826	1	NGb	C0R	1	0.0	12.0110
2712	opls_827	1	NGb	C0S	1	0.0	12.0110
2713	opls_828	1	NGb	C0T	1	0.0	12.0110
2714	opls_829	1	NGb	C0U	1	0.0	12.0110
2715	opls_830	1	NGb	C0V	1	0.0	12.0110
2716	opls_831	1	NGb	C0W	1	0.0	12.0110
2717	opls_832	1	NGb	C0X	2	0.0	12.0110
2718	opls_833	1	NGb	N0Y	2	0.0	14.0070
2719	opls_834	1	NGb	C0Z	2	0.0	12.0110
2720	opls_835	1	NGb	C10	2	0.0	12.0110
2721	opls_836	1	NGb	C11	2	0.0	12.0110
2722	opls_837	1	NGb	N12	2	0.0	14.0070
2723	opls_838	1	NGb	C13	2	0.0	12.0110
2724	opls_839	1	NGb	N14	2	0.0	14.0070
2725	opls_840	1	NGb	O15	2	0.0	15.9990
2726	opls_841	1	NGb	C16	2	0.0	12.0110
2727	opls_842	1	NGb	C17	2	0.0	12.0110
2728	opls_843	1	NGb	C18	2	0.0	12.0110
2729	opls_844	1	NGb	C19	2	0.0	12.0110
2730	opls_845	1	NGb	C1A	2	0.0	12.0110
2731	opls_846	1	NGb	C1B	2	0.0	12.0110
2732	opls_847	1	NGb	C1C	2	0.0	12.0110
2733	opls_848	1	NGb	C1D	2	0.0	12.0110
2734	opls_849	1	NGb	F1E	2	0.0	18.9984
2735	opls_850	1	NGb	F1F	2	0.0	18.9984
2736	opls_851	1	NGb	F1G	2	0.0	18.9984
2737	opls_852	1	NGb	C1H	2	0.0	12.0110
2738	opls_853	1	NGb	C1I	2	0.0	12.0110
2739	opls_854	1	NGb	C1J	2	0.0	12.0110
2740	opls_855	1	NGb	C1K	2	0.0	12.0110
2741	opls_856	1	NGb	C1M	2	0.0	12.0110
2742	opls_857	1	NGb	C1N	2	0.0	12.0110
2743	opls_858	1	NGb	C1O	2	0.0	12.0110
2744	opls_859	1	NGb	H1P	2	0.0	1.0080
2745	opls_860	1	NGb	H1Q	2	0.0	1.0080
2746	opls_861	1	NGb	H1R	2	0.0	1.0080
2747	opls_862	1	NGb	H1S	2	0.0	1.0080
2748	opls_863	1	NGb	H1T	2	0.0	1.0080
2749	opls_864	1	NGb	H1U	2	0.0	1.0080
2750	opls_865	1	NGb	H1V	3	0.0	1.0080
2751	opls_866	1	NGb	H1W	3	0.0	1.0080
2752	opls_867	1	NGb	H1X	3	0.0	1.0080
2753	opls_868	1	NGb	H1Y	3	0.0	1.0080
2754	opls_869	1	NGb	H1Z	3	0.0	1.0080
2755	opls_new	1	NGb	DUM	1	0.0	1.0
2756	opls_871	1	NGb	H21	3	0.0	1.0080
2757	opls_872	1	NGb	H22	3	0.0	1.0080
2758	opls_873	1	NGb	H23	3	0.0	1.0080
2759	opls_874	1	NGb	H24	3	0.0	1.0080
2760	opls_875	1	NGb	H25	3	0.0	1.0080
2761	opls_876	1	NGb	H26	3	0.0	1.0080
2762	opls_877	1	NGb	H27	3	0.0	1.0080
2763	opls_878	1	NGb	H28	3	0.0	1.0080
2764	opls_879	1	NGb	H29	3	0.0	1.0080
2765	opls_880	1	NGb	H2A	3	0.0	1.0080
2766	opls_881	1	NGb	H2B	3	0.0	1.0080
2767	opls_882	1	NGb	H2C	3	0.0	1.0080
2768	opls_883	1	NGb	H2D	3	0.0	1.0080
2769	opls_884	1	NGb	H2E	3	0.0	1.0080
2770	opls_885	1	NGb	H2F	3	0.0	1.0080
2771	opls_886	1	NGb	H2G	3	0.0	1.0080
2772	opls_887	1	NGb	H2H	3	0.0	1.0080
2773	opls_888	1	NGb	H2I	3	0.0	1.0080
2774	opls_889	1	NGb	H2J	3	0.0	1.0080
2775	opls_890	1	NGb	H2K	3	0.0	1.0080
2776	opls_891	1	NGb	H2M	3	0.0	1.0080
2777	opls_892	1	NGb	H2N	3	0.0	1.0080
2778	opls_893	1	NGb	H2O	3	0.0	1.0080
2779	opls_894	1	NGb	H2P	3	0.0	1.0080
2780	opls_895	1	NGb	H2Q	3	0.0	1.0080
2781	opls_896	1	NGb	H2R	3	0.0	1.0080
2782	opls_897	1	NGb	H2S	3	0.0	1.0080
2783	opls_898	1	NGb	H2T	4	0.0	1.0080
2784	opls_899	1	NGb	H2U	4	0.0	1.0080
2785	opls_800	1	NGb	C00	1	0.0	12.0110
2786	opls_801	1	NGb	N01	1	0.0	14.0070
2787	opls_802	1	NGb	C02	1	0.0	12.0110
2788	opls_803	1	NGb	C03	1	0.0	12.0110
2789	opls_804	1	NGb	O04	1	0.0	15.9990
2790	opls_805	1	NGb	C05	1	0.0	12.0110
2791	opls_806	1	NGb	C06	1	0.0	12.0110
2792	opls_807	1	NGb	C07	1	0.0	12.0110
2793	opls_808	1	NGb	C08	1	0.0	12.0110
2794	opls_809	1	NGb	C09	1	0.0	12.0110
2795	opls_810	1	NGb	C0A	1	0.0	12.0110
2796	opls_811	1	NGb	C0B	1	0.0	12.0110
2797	opls_812	1	NGb	C0C	1	0.0	12.0110
2798	opls_new	1	NGb	DUM	1	0.0	1.0
2799	opls_814	1	NGb	C0E	1	0.0	12.0110
2800	opls_815	1	NGb	C0F	1	0.0	12.0110
2801	opls_816	1	NGb	C0G	1	0.0	12.0110
2802	opls_817	1	NGb	C0H	1	0.0	12.0110
2803	opls_818	1	NGb	C0I	1	0.0	12.0110
2804	opls_819	1	NGb	C0J	1	0.0	12.0110
2805	opls_820	1	NGb	C0K	1	0.0	12.0110
2806	opls_821	1	NGb	C0M	1	0.0	12.0110
2807	opls_822	1	NGb	C0N	1	0.0	12.0110
2808	opls_823	1	NGb	C0O	1	0.0	12.0110
2809	opls_824	1	NGb	C0P	1	0.0	12.0110
2810	opls_825	1	NGb	C0Q	1	0.0	12.0110
2811	opls_826	1	NGb	C0R	1	0.0	12.0110
2812	opls_827	1	NGb	C0S	1	0.0	12.0110
2813	opls_828	1	NGb	C0T	1	0.0	12.0110
2814	opls_829	1	NGb	C0U	1	0.0	12.0110
2815	opls_830	1	NGb	C0V	1	0.0	12.0110
2816	opls_831	1	NGb	C0W	1	0.0	12.0110
2817	opls_832	1	NGb	C0X	2	0.0	12.0110
2818	opls_833	1	NGb	N0Y	2	0.0	14.0070
2819	opls_834	1	NGb	C0Z	2	0.0	12.0110
2820	opls_835	1	NGb	C10	2	0.0	12.0110
2821	opls_836	1	NGb	C11	2	0.0	12.0110
2822	opls_837	1	NGb	N12	2	0.0	14.0070
2823	opls_838	1	NGb	C13	2	0.0	12.0110
2824	opls_839	1	NGb	N14	2	0.0	14.0070
2825	opls_840	1	NGb	O15	2	0.0	15.9990
2826	opls_841	1	NGb	C16	2	0.0	12.0110
2827	opls_842	1	NGb	C17	2	0.0	12.0110
2828	opls_843	1	NGb	C18	2	0.0	12.0110
2829	opls_844	1	NGb	C19	2	0.0	12.0110
2830	opls_845	1	NGb	C1A	2	0.0	12.0110
2831	opls_846	1	NGb	C1B	2	0.0	12.0110
2832	opls_847	1	NGb	C1C	2	0.0	12.0110
2833	opls_848	1	NGb	C1D	2	0.0	12.0110
2834	opls_849	1	NGb	F1E	2	0.0	18.9984
2835	opls_850	1	NGb	F1F	2	0.0	18.9984
2836	opls_851	1	NGb	F1G	2	0.0	18.9984
2837	opls_852	1	NGb	C1H	2	0.0	12.0110
2838	opls_853	1	NGb	C1I	2	0.0	12.0110
2839	opls_854	1	NGb	C1J	2	0.0	12.0110
2840	opls_855	1	NGb	C1K	2	0.0	12.0110
2841	opls_856	1	NGb	C1M	2	0.0	12.0110
2842	opls_857	1	NGb	C1N	2	0.0	12.0110
2843	opls_858	1	NGb	C1O	2	0.0	12.0110
2844	opls_859	1	NGb	H1P	2	0.0	1.0080
2845	opls_860	1	NGb	H1Q	2	0.0	1.0080
2846	opls_861	1	NGb	H1R	2	0.0	1.0080
2847	opls_862	1	NGb	H1S	2	0.0	1.0080
2848	opls_863	1	NGb	H1T	2	0.0	1.0080
2849	opls_864	1	NGb	H1U	2	0.0	1.0080
2850	opls_865	1	NGb	H1V	3	0.0	1.0080
2851	opls_866	1	NGb	H1W	3	0.0	1.0080
2852	opls_867	1	NGb	H1X	3	0.0	1.0080
2853	opls_868	1	NGb	H1Y	3	0.0	1.0080
2854	opls_869	1	NGb	H1Z	3	0.0	1.0080
2855	opls_new	1	NGb	DUM	1	0.0	1.0
2856	opls_871	1	NGb	H21	3	0.0	1.0080
2857	opls_872	1	NGb	H22	3	0.0	1.0080
2858	opls_873	1	NGb	H23	3	0.0	1.0080
2859	opls_874	1	NGb	H24	3	0.0	1.0080
2860	opls_875	1	NGb	H25	3	0.0	1.0080
2861	opls_876	1	NGb	H26	3	0.0	1.0080
2862	opls_877	1	NGb	H27	3	0.0	1.0080
2863	opls_878	1	NGb	H28	3	0.0	1.0080
2864	opls_879	1	NGb	H29	3	0.0	1.0080
2865	opls_880	1	NGb	H2A	3	0.0	1.0080
2866	opls_881	1	NGb	H2B	3	0.0	1.0080
2867	opls_882	1	NGb	H2C	3	0.0	1.0080
2868	opls_883	1	NGb	H2D	3	0.0	1.0080
2869	opls_884	1	NGb	H2E	3	0.0	1.0080
2870	opls_885	1	NGb	H2F	3	0.0	1.0080
2871	opls_886	1	NGb	H2G	3	0.0	1.0080
2872	opls_887	1	NGb	H2H	3	0.0	1.0080
2873	opls_888	1	NGb	H2I	3	0.0	1.0080
2874	opls_889	1	NGb	H2J	3	0.0	1.0080
2875	opls_890	1	NGb	H2K	3	0.0	1.0080
2876	opls_891	1	NGb	H2M	3	0.0	1.0080
2877	opls_892	1	NGb	H2N	3	0.0	1.0080
2878	opls_893	1	NGb	H2O	3	0.0	1.0080
2879	opls_894	1	NGb	H2P	3	0.0	1.0080
2880	opls_895	1	NGb	H2Q	3	0.0	1.0080
2881	opls_896	1	NGb	H2R	3	0.0	1.0080
2882	opls_897	1	NGb	H2S	3	0.0	1.0080
2883	opls_898	1	NGb	H2T	4	0.0	1.0080
2884	opls_899	1	NGb	H2U	4	0.0	1.0080
2885	opls_800	1	NGb	C00	1	0.0	12.0110
2886	opls_801	1	NGb	N01	1	0.0	14.0070
2887	opls_802	1	NGb	C02	1	0.0	12.0110
2888	opls_803	1	NGb	C03	1	0.0	12.0110
2889	opls_804	1	NGb	O04	1	0.0	15.9990
2890	opls_805	1	NGb	C05	1	0.0	12.0110
2891	opls_806	1	NGb	C06	1	0.0	12.0110
2892	opls_807	1	NGb	C07	1	0.0	12.0110
2893	opls_808	1	NGb	C08	1	0.0	12.0110
2894	opls_809	1	NGb	C09	1	0.0	12.0110
2895	opls_810	1	NGb	C0A	1	0.0	12.0110
2896	opls_811	1	NGb	C0B	1	0.0	12.0110
2897	opls_812	1	NGb	C0C	1	0.0	12.0110
2898	opls_new	1	NGb	DUM	1	0.0	1.0
2899	opls_814	1	NGb	C0E	1	0.0	12.0110
2900	opls_815	1	NGb	C0F	1	0.0	12.0110
2901	opls_816	1	NGb	C0G	1	0.0	12.0110
2902	opls_817	1	NGb	C0H	1	0.0	12.0110
2903	opls_818	1	NGb	C0I	1	0.0	12.0110
2904	opls_819	1	NGb	C0J	1	0.0	12.0110
2905	opls_820	1	NGb	C0K	1	0.0	12.0110
2906	opls_821	1	NGb	C0M	1	0.0	12.0110
2907	opls_822	1	NGb	C0N	1	0.0	12.0110
2908	opls_823	1	NGb	C0O	1	0.0	12.0110
2909	opls_824	1	NGb	C0P	1	0.0	12.0110
2910	opls_825	1	NGb	C0Q	1	0.0	12.0110
2911	opls_826	1	NGb	C0R	1	0.0	12.0110
2912	opls_827	1	NGb	C0S	1	0.0	12.0110
2913	opls_828	1	NGb	C0T	1	0.0	12.0110
2914	opls_829	1	NGb	C0U	1	0.0	12.0110
2915	opls_830	1	NGb	C0V	1	0.0	12.0110
2916	opls_831	1	NGb	C0W	1	0.0	12.0110
2917	opls_832	1	NGb	C0X	2	0.0	12.0110
2918	opls_833	1	NGb	N0Y	2	0.0	14.0070
2919	opls_834	1	NGb	C0Z	2	0.0	12.0110
2920	opls_835	1	NGb	C10	2	0.0	12.0110
2921	opls_836	1	NGb	C11	2	0.0	12.0110
2922	opls_837	1	NGb	N12	2	0.0	14.0070
2923	opls_838	1	NGb	C13	2	0.0	12.0110
2924	opls_839	1	NGb	N14	2	0.0	14.0070
2925	opls_840	1	NGb	O15	2	0.0	15.9990
2926	opls_841	1	NGb	C16	2	0.0	12.0110
2927	opls_842	1	NGb	C17	2	0.0	12.0110
2928	opls_843	1	NGb	C18	2	0.0	12.0110
2929	opls_844	1	NGb	C19	2	0.0	12.0110
2930	opls_845	1	NGb	C1A	2	0.0	12.0110
2931	opls_846	1	NGb	C1B	2	0.0	12.0110
2932	opls_847	1	NGb	C1C	2	0.0	12.0110
2933	opls_848	1	NGb	C1D	2	0.0	12.0110
2934	opls_849	1	NGb	F1E	2	0.0	18.9984
2935	opls_850	1	NGb	F1F	2	0.0	18.9984
2936	opls_851	1	NGb	F1G	2	0.0	18.9984
2937	opls_852	1	NGb	C1H	2	0.0	12.0110
2938	opls_853	1	NGb	C1I	2	0.0	12.0110
2939	opls_854	1	NGb	C1J	2	0.0	12.0110
2940	opls_855	1	NGb	C1K	2	0.0	12.0110
2941	opls_856	1	NGb	C1M	2	0.0	12.0110
2942	opls_857	1	NGb	C1N	2	0.0	12.0110
2943	opls_858	1	NGb	C1O	2	0.0	12.0110
2944	opls_859	1	NGb	H1P	2	0.0	1.0080
2945	opls_860	1	NGb	H1Q	2	0.0	1.0080
2946	opls_861	1	NGb	H1R	2	0.0	1.0080
2947	opls_862	1	NGb	H1S	2	0.0	1.0080
2948	opls_863	1	NGb	H1T	2	0.0	1.0080
2949	opls_864	1	NGb	H1U	2	0.0	1.0080
2950	opls_865	1	NGb	H1V	3	0.0	1.0080
2951	opls_866	1	NGb	H1W	3	0.0	1.0080
2952	opls_867	1	NGb	H1X	3	0.0	1.0080
2953	opls_868	1	NGb	H1Y	3	0.0	1.0080
2954	opls_869	1	NGb	H1Z	3	0.0	1.0080
2955	opls_new	1	NGb	DUM	1	0.0	1.0
2956	opls_871	1	NGb	H21	3	0.0	1.0080
2957	opls_872	1	NGb	H22	3	0.0	1.0080
2958	opls_873	1	NGb	H23	3	0.0	1.0080
2959	opls_874	1	NGb	H24	3	0.0	1.0080
2960	opls_875	1	NGb	H25	3	0.0	1.0080
2961	opls_876	1	NGb	H26	3	0.0	1.0080
2962	opls_877	1	NGb	H27	3	0.0	1.0080
2963	opls_878	1	NGb	H28	3	0.0	1.0080
2964	opls_879	1	NGb	H29	3	0.0	1.0080
2965	opls_880	1	NGb	H2A	3	0.0	1.0080
2966	opls_881	1	NGb	H2B	3	0.0	1.0080
2967	opls_882	1	NGb	H2C	3	0.0	1.0080
2968	opls_883	1	NGb	H2D	3	0.0	1.0080
2969	opls_884	1	NGb	H2E	3	0.0	1.0080
2970	opls_885	1	NGb	H2F	3	0.0	1.0080
2971	opls_886	1	NGb	H2G	3	0.0	1.0080
2972	opls_887	1	NGb	H2H	3	0.0	1.0080
2973	opls_888	1	NGb	H2I	3	0.0	1.0080
2974	opls_889	1	NGb	H2J	3	0.0	1.0080
2975	opls_890	1	NGb	H2K	3	0.0	1.0080
2976	opls_891	1	NGb	H2M	3	0.0	1.0080
2977	opls_892	1	NGb	H2N	3	0.0	1.0080
2978	opls_893	1	NGb	H2O	3	0.0	1.0080
2979	opls_894	1	NGb	H2P	3	0.0	1.0080
2980	opls_895	1	NGb	H2Q	3	0.0	1.0080
2981	opls_896	1	NGb	H2R	3	0.0	1.0080
2982	opls_897	1	NGb	H2S	3	0.0	1.0080
2983	opls_898	1	NGb	H2T	4	0.0	1.0080
2984	opls_899	1	NGb	H2U	4	0.0	1.0080
2985	opls_800	1	NGb	C00	1	0.0	12.0110
2986	opls_801	1	NGb	N01	1	0.0	14.0070
2987	opls_802	1	NGb	C02	1	0.0	12.0110
2988	opls_803	1	NGb	C03	1	0.0	12.0110
2989	opls_804	1	NGb	O04	1	0.0	15.9990
2990	opls_805	1	NGb	C05	1	0.0	12.0110
2991	opls_806	1	NGb	C06	1	0.0	12.0110
2992	opls_807	1	NGb	C07	1	0.0	12.0110
2993	opls_808	1	NGb	C08	1	0.0	12.0110
2994	opls_809	1	NGb	C09	1	0.0	12.0110
2995	opls_810	1	NGb	C0A	1	0.0	12.0110
2996	opls_811	1	NGb	C0B	1	0.0	12.0110
2997	opls_812	1	NGb	C0C	1	0.0	12.0110
2998	opls_new	1	NGb	DUM	1	0.0	1.0
2999	opls_814	1	NGb	C0E	1	0.0	12.0110
3000	opls_815	1	NGb	C0F	1	0.0	12.0110
3001	opls_816	1	NGb	C0G	1	0.0	12.0110
3002	opls_817	1	NGb	C0H	1	0.0	12.0110
3003	opls_818	1	NGb	C0I	1	0.0	12.0110
3004	opls_819	1	NGb	C0J	1	0.0	12.0110
3005	opls_820	1	NGb	C0K	1	0.0	12.0110
3006	opls_821	1	NGb	C0M	1	0.0	12.0110
3007	opls_822	1	NGb	C0N	1	0.0	12.0110
3008	opls_823	1	NGb	C0O	1	0.0	12.0110
3009	opls_824	1	NGb	C0P	1	0.0	12.0110
3010	opls_825	1	NGb	C0Q	1	0.0	12.0110
3011	opls_826	1	NGb	C0R	1	0.0	12.0110
3012	opls_827	1	NGb	C0S	1	0.0	12.0110
3013	opls_828	1	NGb	C0T	1	0.0	12.0110
3014	opls_829	1	NGb	C0U	1	0.0	12.0110
3015	opls_830	1	NGb	C0V	1	0.0	12.0110
3016	opls_831	1	NGb	C0W	1	0.0	12.0110
3017	opls_832	1	NGb	C0X	2	0.0	12.0110
3018	opls_833	1	NGb	N0Y	2	0.0	14.0070
3019	opls_834	1	NGb	C0Z	2	0.0	12.0110
3020	opls_835	1	NGb	C10	2	0.0	12.0110
3021	opls_836	1	NGb	C11	2	0.0	12.0110
3022	opls_837	1	NGb	N12	2	0.0	14.0070
3023	opls_838	1	NGb	C13	2	0.0	12.0110
3024	opls_839	1	NGb	N14	2	0.0	14.0070
3025	opls_840	1	NGb	O15	2	0.0	15.9990
3026	opls_841	1	NGb	C16	2	0.0	12.0110
3027	opls_842	1	NGb	C17	2	0.0	12.0110
3028	opls_843	1	NGb	C18	2	0.0	12.0110
3029	opls_844	1	NGb	C19	2	0.0	12.0110
3030	opls_845	1	NGb	C1A	2	0.0	12.0110
3031	opls_846	1	NGb	C1B	2	0.0	12.0110
3032	opls_847	1	NGb	C1C	2	0.0	12.0110
3033	opls_848	1	NGb	C1D	2	0.0	12.0110
3034	opls_849	1	NGb	F1E	2	0.0	18.9984
3035	opls_850	1	NGb	F1F	2	0.0	18.9984
3036	opls_851	1	NGb	F1G	2	0.0	18.9984
3037	opls_852	1	NGb	C1H	2	0.0	12.0110
3038	opls_853	1	NGb	C1I	2	0.0	12.0110
3039	opls_854	1	NGb	C1J	2	0.0	12.0110
3040	opls_855	1	NGb	C1K	2	0.0	12.0110
3041	opls_856	1	NGb	C1M	2	0.0	12.0110
3042	opls_857	1	NGb	C1N	2	0.0	12.0110
3043	opls_858	1	NGb	C1O	2	0.0	12.0110
3044	opls_859	1	NGb	H1P	2	0.0	1.0080
3045	opls_860	1	NGb	H1Q	2	0.0	1.0080
3046	opls_861	1	NGb	H1R	2	0.0	1.0080
3047	opls_862	1	NGb	H1S	2	0.0	1.0080
3048	opls_863	1	NGb	H1T	2	0.0	1.0080
3049	opls_864	1	NGb	H1U	2	0.0	1.0080
3050	opls_865	1	NGb	H1V	3	0.0	1.0080
3051	opls_866	1	NGb	H1W	3	0.0	1.0080
3052	opls_867	1	NGb	H1X	3	0.0	1.0080
3053	opls_868	1	NGb	H1Y	3	0.0	1.0080
3054	opls_869	1	NGb	H1Z	3	0.0	1.0080
3055	opls_new	1	NGb	DUM	1	0.0	1.0
3056	opls_871	1	NGb	H21	3	0.0	1.0080
3057	opls_872	1	NGb	H22	3	0.0	1.0080
3058	opls_873	1	NGb	H23	3	0.0	1.0080
3059	opls_874	1	NGb	H24	3	0.0	1.0080
3060	opls_875	1	NGb	H25	3	0.0	1.0080
3061	opls_876	1	NGb	H26	3	0.0	1.0080
3062	opls_877	1	NGb	H27	3	0.0	1.0080
3063	opls_878	1	NGb	H28	3	0.0	1.0080
3064	opls_879	1	NGb	H29	3	0.0	1.0080
3065	opls_880	1	NGb	H2A	3	0.0	1.0080
3066	opls_881	1	NGb	H2B	3	0.0	1.0080
3067	opls_882	1	NGb	H2C	3	0.0	1.0080
3068	opls_883	1	NGb	H2D	3	0.0	1.0080
3069	opls_884	1	NGb	H2E	3	0.0	1.0080
3070	opls_885	1	NGb	H2F	3	0.0	1.0080
3071	opls_886	1	NGb	H2G	3	0.0	1.0080
3072	opls_887	1	NGb	H2H	3	0.0	1.0080
3073	opls_888	1	NGb	H2I	3	0.0	1.0080
3074	opls_889	1	NGb	H2J	3	0.0	1.0080
3075	opls_890	1	NGb	H2K	3	0.0	1.0080
3076	opls_891	1	NGb	H2M	3	0.0	1.0080
3077	opls_892	1	NGb	H2N	3	0.0	1.0080
3078	opls_893	1	NGb	H2O	3	0.0	1.0080
3079	opls_894	1	NGb	H2P	3	0.0	1.0080
3080	opls_895	1	NGb	H2Q	3	0.0	1.0080
3081	opls_896	1	NGb	H2R	3	0.0	1.0080
3082	opls_897	1	NGb	H2S	3	0.0	1.0080
3083	opls_898	1	NGb	H2T	4	0.0	1.0080
3084	opls_899	1	NGb	H2U	4	0.0	1.0080
3085	opls_800	1	NGb	C00	1	0.0	12.0110
3086	opls_801	1	NGb	N01	1	0.0	14.0070
3087	opls_802	1	NGb	C02	1	0.0	12.0110
3088	opls_803	1	NGb	C03	1	0.0	12.0110
3089	opls_804	1	NGb	O04	1	0.0	15.9990
3090	opls_805	1	NGb	C05	1	0.0	12.0110
3091	opls_806	1	NGb	C06	1	0.0	12.0110
3092	opls_807	1	NGb	C07	1	0.0	12.0110
3093	opls_808	1	NGb	C08	1	0.0	12.0110
3094	opls_809	1	NGb	C09	1	0.0	12.0110
3095	opls_810	1	NGb	C0A	1	0.0	12.0110
3096	opls_811	1	NGb	C0B	1	0.0	12.0110
3097	opls_812	1	NGb	C0C	1	0.0	12.0110
3098	opls_new	1	NGb	DUM	1	0.0	1.0
3099	opls_814	1	NGb	C0E	1	0.0	12.0110
3100	opls_815	1	NGb	C0F	1	0.0	12.0110
3101	opls_816	1	NGb	C0G	1	0.0	12.0110
3102	opls_817	1	NGb	C0H	1	0.0	12.0110
3103	opls_818	1	NGb	C0I	1	0.0	12.0110
3104	opls_819	1	NGb	C0J	1	0.0	12.0110
3105	opls_820	1	NGb	C0K	1	0.0	12.0110
3106	opls_821	1	NGb	C0M	1	0.0	12.0110
3107	opls_822	1	NGb	C0N	1	0.0	12.0110
3108	opls_823	1	NGb	C0O	1	0.0	12.0110
3109	opls_824	1	NGb	C0P	1	0.0	12.0110
3110	opls_825	1	NGb	C0Q	1	0.0	12.0110
3111	opls_826	1	NGb	C0R	1	0.0	12.0110
3112	opls_827	1	NGb	C0S	1	0.0	12.0110
3113	opls_828	1	NGb	C0T	1	0.0	12.0110
3114	opls_829	1	NGb	C0U	1	0.0	12.0110
3115	opls_830	1	NGb	C0V	1	0.0	12.0110
3116	opls_831	1	NGb	C0W	1	0.0	12.0110
3117	opls_832	1	NGb	C0X	2	0.0	12.0110
3118	opls_833	1	NGb	N0Y	2	0.0	14.0070
3119	opls_834	1	NGb	C0Z	2	0.0	12.0110
3120	opls_835	1	NGb	C10	2	0.0	12.0110
3121	opls_836	1	NGb	C11	2	0.0	12.0110
3122	opls_837	1	NGb	N12	2	0.0	14.0070
3123	opls_838	1	NGb	C13	2	0.0	12.0110
3124	opls_839	1	NGb	N14	2	0.0	14.0070
3125	opls_840	1	NGb	O15	2	0.0	15.9990
3126	opls_841	1	NGb	C16	2	0.0	12.0110
3127	opls_842	1	NGb	C17	2	0.0	12.0110
3128	opls_843	1	NGb	C18	2	0.0	12.0110
3129	opls_844	1	NGb	C19	2	0.0	12.0110
3130	opls_845	1	NGb	C1A	2	0.0	12.0110
3131	opls_846	1	NGb	C1B	2	0.0	12.0110
3132	opls_847	1	NGb	C1C	2	0.0	12.0110
3133	opls_848	1	NGb	C1D	2	0.0	12.0110
3134	opls_849	1	NGb	F1E	2	0.0	18.9984
3135	opls_850	1	NGb	F1F	2	0.0	18.9984
3136	opls_851	1	NGb	F1G	2	0.0	18.9984
3137	opls_852	1	NGb	C1H	2	0.0	12.0110
3138	opls_853	1	NGb	C1I	2	0.0	12.0110
3139	opls_854	1	NGb	C1J	2	0.0	12.0110
3140	opls_855	1	NGb	C1K	2	0.0	12.0110
3141	opls_856	1	NGb	C1M	2	0.0	12.0110
3142	opls_857	1	NGb	C1N	2	0.0	12.0110
3143	opls_858	1	NGb	C1O	2	0.0	12.0110
3144	opls_859	1	NGb	H1P	2	0.0	1.0080
3145	opls_860	1	NGb	H1Q	2	0.0	1.0080
3146	opls_861	1	NGb	H1R	2	0.0	1.0080
3147	opls_862	1	NGb	H1S	2	0.0	1.0080
3148	opls_863	1	NGb	H1T	2	0.0	1.0080
3149	opls_864	1	NGb	H1U	2	0.0	1.0080
3150	opls_865	1	NGb	H1V	3	0.0	1.0080
3151	opls_866	1	NGb	H1W	3	0.0	1.0080
3152	opls_867	1	NGb	H1X	3	0.0	1.0080
3153	opls_868	1	NGb	H1Y	3	0.0	1.0080
3154	opls_869	1	NGb	H1Z	3	0.0	1.0080
3155	opls_new	1	NGb	DUM	1	0.0	1.0
3156	opls_871	1	NGb	H21	3	0.0	1.0080
3157	opls_872	1	NGb	H22	3	0.0	1.0080
3158	opls_873	1	NGb	H23	3	0.0	1.0080
3159	opls_874	1	NGb	H24	3	0.0	1.0080
3160	opls_875	1	NGb	H25	3	0.0	1.0080
3161	opls_876	1	NGb	H26	3	0.0	1.0080
3162	opls_877	1	NGb	H27	3	0.0	1.0080
3163	opls_878	1	NGb	H28	3	0.0	1.0080
3164	opls_879	1	NGb	H29	3	0.0	1.0080
3165	opls_880	1	NGb	H2A	3	0.0	1.0080
3166	opls_881	1	NGb	H2B	3	0.0	1.0080
3167	opls_882	1	NGb	H2C	3	0.0	1.0080
3168	opls_883	1	NGb	H2D	3	0.0	1.0080
3169	opls_884	1	NGb	H2E	3	0.0	1.0080
3170	opls_885	1	NGb	H2F	3	0.0	1.0080
3171	opls_886	1	NGb	H2G	3	0.0	1.0080
3172	opls_887	1	NGb	H2H	3	0.0	1.0080
3173	opls_888	1	NGb	H2I	3	0.0	1.0080
3174	opls_889	1	NGb	H2J	3	0.0	1.0080
3175	opls_890	1	NGb	H2K	3	0.0	1.0080
3176	opls_891	1	NGb	H2M	3	0.0	1.0080
3177	opls_892	1	NGb	H2N	3	0.0	1.0080
3178	opls_893	1	NGb	H2O	3	0.0	1.0080
3179	opls_894	1	NGb	H2P	3	0.0	1.0080
3180	opls_895	1	NGb	H2Q	3	0.0	1.0080
3181	opls_896	1	NGb	H2R	3	0.0	1.0080
3182	opls_897	1	NGb	H2S	3	0.0	1.0080
3183	opls_898	1	NGb	H2T	4	0.0	1.0080
3184	opls_899	1	NGb	H2U	4	0.0	1.0080
3185	opls_800	1	NGb	C00	1	0.0	12.0110
3186	opls_801	1	NGb	N01	1	0.0	14.0070
3187	opls_802	1	NGb	C02	1	0.0	12.0110
3188	opls_803	1	NGb	C03	1	0.0	12.0110
3189	opls_804	1	NGb	O04	1	0.0	15.9990
3190	opls_805	1	NGb	C05	1	0.0	12.0110
3191	opls_806	1	NGb	C06	1	0.0	12.0110
3192	opls_807	1	NGb	C07	1	0.0	12.0110
3193	opls_808	1	NGb	C08	1	0.0	12.0110
3194	opls_809	1	NGb	C09	1	0.0	12.0110
3195	opls_810	1	NGb	C0A	1	0.0	12.0110
3196	opls_811	1	NGb	C0B	1	0.0	12.0110
3197	opls_812	1	NGb	C0C	1	0.0	12.0110
3198	opls_new	1	NGb	DUM	1	0.0	1.0
3199	opls_814	1	NGb	C0E	1	0.0	12.0110
3200	opls_815	1	NGb	C0F	1	0.0	12.0110
3201	opls_816	1	NGb	C0G	1	0.0	12.0110
3202	opls_817	1	NGb	C0H	1	0.0	12.0110
3203	opls_818	1	NGb	C0I	1	0.0	12.0110
3204	opls_819	1	NGb	C0J	1	0.0	12.0110
3205	opls_820	1	NGb	C0K	1	0.0	12.0110
3206	opls_821	1	NGb	C0M	1	0.0	12.0110
3207	opls_822	1	NGb	C0N	1	0.0	12.0110
3208	opls_823	1	NGb	C0O	1	0.0	12.0110
3209	opls_824	1	NGb	C0P	1	0.0	12.0110
3210	opls_825	1	NGb	C0Q	1	0.0	12.0110
3211	opls_826	1	NGb	C0R	1	0.0	12.0110
3212	opls_827	1	NGb	C0S	1	0.0	12.0110
3213	opls_828	1	NGb	C0T	1	0.0	12.0110
3214	opls_829	1	NGb	C0U	1	0.0	12.0110
3215	opls_830	1	NGb	C0V	1	0.0	12.0110
3216	opls_831	1	NGb	C0W	1	0.0	12.0110
3217	opls_832	1	NGb	C0X	2	0.0	12.0110
3218	opls_833	1	NGb	N0Y	2	0.0	14.0070
3219	opls_834	1	NGb	C0Z	2	0.0	12.0110
3220	opls_835	1	NGb	C10	2	0.0	12.0110
3221	opls_836	1	NGb	C11	2	0.0	12.0110
3222	opls_837	1	NGb	N12	2	0.0	14.0070
3223	opls_838	1	NGb	C13	2	0.0	12.0110
3224	opls_839	1	NGb	N14	2	0.0	14.0070
3225	opls_840	1	NGb	O15	2	0.0	15.9990
3226	opls_841	1	NGb	C16	2	0.0	12.0110
3227	opls_842	1	NGb	C17	2	0.0	12.0110
3228	opls_843	1	NGb	C18	2	0.0	12.0110
3229	opls_844	1	NGb	C19	2	0.0	12.0110
3230	opls_845	1	NGb	C1A	2	0.0	12.0110
3231	opls_846	1	NGb	C1B	2	0.0	12.0110
3232	opls_847	1	NGb	C1C	2	0.0	12.0110
3233	opls_848	1	NGb	C1D	2	0.0	12.0110
3234	opls_849	1	NGb	F1E	2	0.0	18.9984
3235	opls_850	1	NGb	F1F	2	0.0	18.9984
3236	opls_851	1	NGb	F1G	2	0.0	18.9984
3237	opls_852	1	NGb	C1H	2	0.0	12.0110
3238	opls_853	1	NGb	C1I	2	0.0	12.0110
3239	opls_854	1	NGb	C1J	2	0.0	12.0110
3240	opls_855	1	NGb	C1K	2	0.0	12.0110
3241	opls_856	1	NGb	C1M	2	0.0	12.0110
3242	opls_857	1	NGb	C1N	2	0.0	12.0110
3243	opls_858	1	NGb	C1O	2	0.0	12.0110
3244	opls_859	1	NGb	H1P	2	0.0	1.0080
3245	opls_860	1	NGb	H1Q	2	0.0	1.0080
3246	opls_861	1	NGb	H1R	2	0.0	1.0080
3247	opls_862	1	NGb	H1S	2	0.0	1.0080
3248	opls_863	1	NGb	H1T	2	0.0	1.0080
3249	opls_864	1	NGb	H1U	2	0.0	1.0080
3250	opls_865	1	NGb	H1V	3	0.0	1.0080
3251	opls_866	1	NGb	H1W	3	0.0	1.0080
3252	opls_867	1	NGb	H1X	3	0.0	1.0080
3253	opls_868	1	NGb	H1Y	3	0.0	1.0080
3254	opls_869	1	NGb	H1Z	3	0.0	1.0080
3255	opls_new	1	NGb	DUM	1	0.0	1.0
3256	opls_871	1	NGb	H21	3	0.0	1.0080
3257	opls_872	1	NGb	H22	3	0.0	1.0080
3258	opls_873	1	NGb	H23	3	0.0	1.0080
3259	opls_874	1	NGb	H24	3	0.0	1.0080
3260	opls_875	1	NGb	H25	3	0.0	1.0080
3261	opls_876	1	NGb	H26	3	0.0	1.0080
3262	opls_877	1	NGb	H27	3	0.0	1.0080
3263	opls_878	1	NGb	H28	3	0.0	1.0080
3264	opls_879	1	NGb	H29	3	0.0	1.0080
3265	opls_880	1	NGb	H2A	3	0.0	1.0080
3266	opls_881	1	NGb	H2B	3	0.0	1.0080
3267	opls_882	1	NGb	H2C	3	0.0	1.0080
3268	opls_883	1	NGb	H2D	3	0.0	1.0080
3269	opls_884	1	NGb	H2E	3	0.0	1.0080
3270	opls_885	1	NGb	H2F	3	0.0	1.0080
3271	opls_886	1	NGb	H2G	3	0.0	1.0080
3272	opls_887	1	NGb	H2H	3	0.0	1.0080
3273	opls_888	1	NGb	H2I	3	0.0	1.0080
3274	opls_889	1	NGb	H2J	3	0.0	1.0080
3275	opls_890	1	NGb	H2K	3	0.0	1.0080
3276	opls_891	1	NGb	H2M	3	0.0	1.0080
3277	opls_892	1	NGb	H2N	3	0.0	1.0080
3278	opls_893	1	NGb	H2O	3	0.0	1.0080
3279	opls_894	1	NGb	H2P	3	0.0	1.0080
3280	opls_895	1	NGb	H2Q	3	0.0	1.0080
3281	opls_896	1	NGb	H2R	3	0.0	1.0080
3282	opls_897	1	NGb	H2S	3	0.0	1.0080
3283	opls_898	1	NGb	H2T	4	0.0	1.0080
3284	opls_899	1	NGb	H2U	4	0.0	1.0080
3285	opls_800	1	NGb	C00	1	0.0	12.0110
3286	opls_801	1	NGb	N01	1	0.0	14.0070
3287	opls_802	1	NGb	C02	1	0.0	12.0110
3288	opls_803	1	NGb	C03	1	0.0	12.0110
3289	opls_804	1	NGb	O04	1	0.0	15.9990
3290	opls_805	1	NGb	C05	1	0.0	12.0110
3291	opls_806	1	NGb	C06	1	0.0	12.0110
3292	opls_807	1	NGb	C07	1	0.0	12.0110
3293	opls_808	1	NGb	C08	1	0.0	12.0110
3294	opls_809	1	NGb	C09	1	0.0	12.0110
3295	opls_810	1	NGb	C0A	1	0.0	12.0110
3296	opls_811	1	NGb	C0B	1	0.0	12.0110
3297	opls_812	1	NGb	C0C	1	0.0	12.0110
3298	opls_new	1	NGb	DUM	1	0.0	1.0
3299	opls_814	1	NGb	C0E	1	0.0	12.0110
3300	opls_815	1	NGb	C0F	1	0.0	12.0110
3301	opls_816	1	NGb	C0G	1	0.0	12.0110
3302	opls_817	1	NGb	C0H	1	0.0	12.0110
3303	opls_818	1	NGb	C0I	1	0.0	12.0110
3304	opls_819	1	NGb	C0J	1	0.0	12.0110
3305	opls_820	1	NGb	C0K	1	0.0	12.0110
3306	opls_821	1	NGb	C0M	1	0.0	12.0110
3307	opls_822	1	NGb	C0N	1	0.0	12.0110
3308	opls_823	1	NGb	C0O	1	0.0	12.0110
3309	opls_824	1	NGb	C0P	1	0.0	12.0110
3310	opls_825	1	NGb	C0Q	1	0.0	12.0110
3311	opls_826	1	NGb	C0R	1	0.0	12.0110
3312	opls_827	1	NGb	C0S	1	0.0	12.0110
3313	opls_828	1	NGb	C0T	1	0.0	12.0110
3314	opls_829	1	NGb	C0U	1	0.0	12.0110
3315	opls_830	1	NGb	C0V	1	0.0	12.0110
3316	opls_831	1	NGb	C0W	1	0.0	12.0110
3317	opls_832	1	NGb	C0X	2	0.0	12.0110
3318	opls_833	1	NGb	N0Y	2	0.0	14.0070
3319	opls_834	1	NGb	C0Z	2	0.0	12.0110
3320	opls_835	1	NGb	C10	2	0.0	12.0110
3321	opls_836	1	NGb	C11	2	0.0	12.0110
3322	opls_837	1	NGb	N12	2	0.0	14.0070
3323	opls_838	1	NGb	C13	2	0.0	12.0110
3324	opls_839	1	NGb	N14	2	0.0	14.0070
3325	opls_840	1	NGb	O15	2	0.0	15.9990
3326	opls_841	1	NGb	C16	2	0.0	12.0110
3327	opls_842	1	NGb	C17	2	0.0	12.0110
3328	opls_843	1	NGb	C18	2	0.0	12.0110
3329	opls_844	1	NGb	C19	2	0.0	12.0110
3330	opls_845	1	NGb	C1A	2	0.0	12.0110
3331	opls_846	1	NGb	C1B	2	0.0	12.0110
3332	opls_847	1	NGb	C1C	2	0.0	12.0110
3333	opls_848	1	NGb	C1D	2	0.0	12.0110
3334	opls_849	1	NGb	F1E	2	0.0	18.9984
3335	opls_850	1	NGb	F1F	2	0.0	18.9984
3336	opls_851	1	NGb	F1G	2	0.0	18.9984
3337	opls_852	1	NGb	C1H	2	0.0	12.0110
3338	opls_853	1	NGb	C1I	2	0.0	12.0110
3339	opls_854	1	NGb	C1J	2	0.0	12.0110
3340	opls_855	1	NGb	C1K	2	0.0	12.0110
3341	opls_856	1	NGb	C1M	2	0.0	12.0110
3342	opls_857	1	NGb	C1N	2	0.0	12.0110
3343	opls_858	1	NGb	C1O	2	0.0	12.0110
3344	opls_859	1	NGb	H1P	2	0.0	1.0080
3345	opls_860	1	NGb	H1Q	2	0.0	1.0080
3346	opls_861	1	NGb	H1R	2	0.0	1.0080
3347	opls_862	1	NGb	H1S	2	0.0	1.0080
3348	opls_863	1	NGb	H1T	2	0.0	1.0080
3349	opls_864	1	NGb	H1U	2	0.0	1.0080
3350	opls_865	1	NGb	H1V	3	0.0	1.0080
3351	opls_866	1	NGb	H1W	3	0.0	1.0080
3352	opls_867	1	NGb	H1X	3	0.0	1.0080
3353	opls_868	1	NGb	H1Y	3	0.0	1.0080
3354	opls_869	1	NGb	H1Z	3	0.0	1.0080
3355	opls_new	1	NGb	DUM	1	0.0	1.0
3356	opls_871	1	NGb	H21	3	0.0	1.0080
3357	opls_872	1	NGb	H22	3	0.0	1.0080
3358	opls_873	1	NGb	H23	3	0.0	1.0080
3359	opls_874	1	NGb	H24	3	0.0	1.0080
3360	opls_875	1	NGb	H25	3	0.0	1.0080
3361	opls_876	1	NGb	H26	3	0.0	1.0080
3362	opls_877	1	NGb	H27	3	0.0	1.0080
3363	opls_878	1	NGb	H28	3	0.0	1.0080
3364	opls_879	1	NGb	H29	3	0.0	1.0080
3365	opls_880	1	NGb	H2A	3	0.0	1.0080
3366	opls_881	1	NGb	H2B	3	0.0	1.0080
3367	opls_882	1	NGb	H2C	3	0.0	1.0080
3368	opls_883	1	NGb	H2D	3	0.0	1.0080
3369	opls_884	1	NGb	H2E	3	0.0	1.0080
3370	opls_885	1	NGb	H2F	3	0.0	1.0080
3371	opls_886	1	NGb	H2G	3	0.0	1.0080
3372	opls_887	1	NGb	H2H	3	0.0	1.0080
3373	opls_888	1	NGb	H2I	3	0.0	1.0080
3374	opls_889	1	NGb	H2J	3	0.0	1.0080
3375	opls_890	1	NGb	H2K	3	0.0	1.0080
3376	opls_891	1	NGb	H2M	3	0.0	1.0080
3377	opls_892	1	NGb	H2N	3	0.0	1.0080
3378	opls_893	1	NGb	H2O	3	0.0	1.0080
3379	opls_894	1	NGb	H2P	3	0.0	1.0080
3380	opls_895	1	NGb	H2Q	3	0.0	1.0080
3381	opls_896	1	NGb	H2R	3	0.0	1.0080
3382	opls_897	1	NGb	H2S	3	0.0	1.0080
3383	opls_898	1	NGb	H2T	4	0.0	1.0080
3384	opls_899	1	NGb	H2U	4	0.0	1.0080
3385	opls_800	1	NGb	C00	1	0.0	12.0110
3386	opls_801	1	NGb	N01	1	0.0	14.0070
3387	opls_802	1	NGb	C02	1	0.0	12.0110
3388	opls_803	1	NGb	C03	1	0.0	12.0110
3389	opls_804	1	NGb	O04	1	0.0	15.9990
3390	opls_805	1	NGb	C05	1	0.0	12.0110
3391	opls_806	1	NGb	C06	1	0.0	12.0110
3392	opls_807	1	NGb	C07	1	0.0	12.0110
3393	opls_808	1	NGb	C08	1	0.0	12.0110
3394	opls_809	1	NGb	C09	1	0.0	12.0110
3395	opls_810	1	NGb	C0A	1	0.0	12.0110
3396	opls_811	1	NGb	C0B	1	0.0	12.0110
3397	opls_812	1	NGb	C0C	1	0.0	12.0110
3398	opls_new	1	NGb	DUM	1	0.0	1.0
3399	opls_814	1	NGb	C0E	1	0.0	12.0110
3400	opls_815	1	NGb	C0F	1	0.0	12.0110
3401	opls_816	1	NGb	C0G	1	0.0	12.0110
3402	opls_817	1	NGb	C0H	1	0.0	12.0110
3403	opls_818	1	NGb	C0I	1	0.0	12.0110
3404	opls_819	1	NGb	C0J	1	0.0	12.0110
3405	opls_820	1	NGb	C0K	1	0.0	12.0110
3406	opls_821	1	NGb	C0M	1	0.0	12.0110
3407	opls_822	1	NGb	C0N	1	0.0	12.0110
3408	opls_823	1	NGb	C0O	1	0.0	12.0110
3409	opls_824	1	NGb	C0P	1	0.0	12.0110
3410	opls_825	1	NGb	C0Q	1	0.0	12.0110
3411	opls_826	1	NGb	C0R	1	0.0	12.0110
3412	opls_827	1	NGb	C0S	1	0.0	12.0110
3413	opls_828	1	NGb	C0T	1	0.0	12.0110
3414	opls_829	1	NGb	C0U	1	0.0	12.0110
3415	opls_830	1	NGb	C0V	1	0.0	12.0110
3416	opls_831	1	NGb	C0W	1	0.0	12.0110
3417	opls_832	1	NGb	C0X	2	0.0	12.0110
3418	opls_833	1	NGb	N0Y	2	0.0	14.0070
3419	opls_834	1	NGb	C0Z	2	0.0	12.0110
3420	opls_835	1	NGb	C10	2	0.0	12.0110
3421	opls_836	1	NGb	C11	2	0.0	12.0110
3422	opls_837	1	NGb	N12	2	0.0	14.0070
3423	opls_838	1	NGb	C13	2	0.0	12.0110
3424	opls_839	1	NGb	N14	2	0.0	14.0070
3425	opls_840	1	NGb	O15	2	0.0	15.9990
3426	opls_841	1	NGb	C16	2	0.0	12.0110
3427	opls_842	1	NGb	C17	2	0.0	12.0110
3428	opls_843	1	NGb	C18	2	0.0	12.0110
3429	opls_844	1	NGb	C19	2	0.0	12.0110
3430	opls_845	1	NGb	C1A	2	0.0	12.0110
3431	opls_846	1	NGb	C1B	2	0.0	12.0110
3432	opls_847	1	NGb	C1C	2	0.0	12.0110
3433	opls_848	1	NGb	C1D	2	0.0	12.0110
3434	opls_849	1	NGb	F1E	2	0.0	18.9984
3435	opls_850	1	NGb	F1F	2	0.0	18.9984
3436	opls_851	1	NGb	F1G	2	0.0	18.9984
3437	opls_852	1	NGb	C1H	2	0.0	12.0110
3438	opls_853	1	NGb	C1I	2	0.0	12.0110
3439	opls_854	1	NGb	C1J	2	0.0	12.0110
3440	opls_855	1	NGb	C1K	2	0.0	12.0110
3441	opls_856	1	NGb	C1M	2	0.0	12.0110
3442	opls_857	1	NGb	C1N	2	0.0	12.0110
3443	opls_858	1	NGb	C1O	2	0.0	12.0110
3444	opls_859	1	NGb	H1P	2	0.0	1.0080
3445	opls_860	1	NGb	H1Q	2	0.0	1.0080
3446	opls_861	1	NGb	H1R	2	0.0	1.0080
3447	opls_862	1	NGb	H1S	2	0.0	1.0080
3448	opls_863	1	NGb	H1T	2	0.0	1.0080
3449	opls_864	1	NGb	H1U	2	0.0	1.0080
3450	opls_865	1	NGb	H1V	3	0.0	1.0080
3451	opls_866	1	NGb	H1W	3	0.0	1.0080
3452	opls_867	1	NGb	H1X	3	0.0	1.0080
3453	opls_868	1	NGb	H1Y	3	0.0	1.0080
3454	opls_869	1	NGb	H1Z	3	0.0	1.0080
3455	opls_new	1	NGb	DUM	1	0.0	1.0
3456	opls_871	1	NGb	H21	3	0.0	1.0080
3457	opls_872	1	NGb	H22	3	0.0	1.0080
3458	opls_873	1	NGb	H23	3	0.0	1.0080
3459	opls_874	1	NGb	H24	3	0.0	1.0080
3460	opls_875	1	NGb	H25	3	0.0	1.0080
3461	opls_876	1	NGb	H26	3	0.0	1.0080
3462	opls_877	1	NGb	H27	3	0.0	1.0080
3463	opls_878	1	NGb	H28	3	0.0	1.0080
3464	opls_879	1	NGb	H29	3	0.0	1.0080
3465	opls_880	1	NGb	H2A	3	0.0	1.0080
3466	opls_881	1	NGb	H2B	3	0.0	1.0080
3467	opls_882	1	NGb	H2C	3	0.0	1.0080
3468	opls_883	1	NGb	H2D	3	0.0	1.0080
3469	opls_884	1	NGb	H2E	3	0.0	1.0080
3470	opls_885	1	NGb	H2F	3	0.0	1.0080
3471	opls_886	1	NGb	H2G	3	0.0	1.0080
3472	opls_887	1	NGb	H2H	3	0.0	1.0080
3473	opls_888	1	NGb	H2I	3	0.0	1.0080
3474	opls_889	1	NGb	H2J	3	0.0	1.0080
3475	opls_890	1	NGb	H2K	3	0.0	1.0080
3476	opls_891	1	NGb	H2M	3	0.0	1.0080
3477	opls_892	1	NGb	H2N	3	0.0	1.0080
3478	opls_893	1	NGb	H2O	3	0.0	1.0080
3479	opls_894	1	NGb	H2P	3	0.0	1.0080
3480	opls_895	1	NGb	H2Q	3	0.0	1.0080
3481	opls_896	1	NGb	H2R	3	0.0	1.0080
3482	opls_897	1	NGb	H2S	3	0.0	1.0080
3483	opls_898	1	NGb	H2T	4	0.0	1.0080
3484	opls_899	1	NGb	H2U	4	0.0	1.0080
3485	opls_800	1	NGb	C00	1	0.0	12.0110
3486	opls_801	1	NGb	N01	1	0.0	14.0070
3487	opls_802	1	NGb	C02	1	0.0	12.0110
3488	opls_803	1	NGb	C03	1	0.0	12.0110
3489	opls_804	1	NGb	O04	1	0.0	15.9990
3490	opls_805	1	NGb	C05	1	0.0	12.0110
3491	opls_806	1	NGb	C06	1	0.0	12.0110
3492	opls_807	1	NGb	C07	1	0.0	12.0110
3493	opls_808	1	NGb	C08	1	0.0	12.0110
3494	opls_809	1	NGb	C09	1	0.0	12.0110
3495	opls_810	1	NGb	C0A	1	0.0	12.0110
3496	opls_811	1	NGb	C0B	1	0.0	12.0110
3497	opls_812	1	NGb	C0C	1	0.0	12.0110
3498	opls_new	1	NGb	DUM	1	0.0	1.0
3499	opls_814	1	NGb	C0E	1	0.0	12.0110
3500	opls_815	1	NGb	C0F	1	0.0	12.0110
3501	opls_816	1	NGb	C0G	1	0.0	12.0110
3502	opls_817	1	NGb	C0H	1	0.0	12.0110
3503	opls_818	1	NGb	C0I	1	0.0	12.0110
3504	opls_819	1	NGb	C0J	1	0.0	12.0110
3505	opls_820	1	NGb	C0K	1	0.0	12.0110
3506	opls_821	1	NGb	C0M	1	0.0	12.0110
3507	opls_822	1	NGb	C0N	1	0.0	12.0110
3508	opls_823	1	NGb	C0O	1	0.0	12.0110
3509	opls_824	1	NGb	C0P	1	0.0	12.0110
3510	opls_825	1	NGb	C0Q	1	0.0	12.0110
3511	opls_826	1	NGb	C0R	1	0.0	12.0110
3512	opls_827	1	NGb	C0S	1	0.0	12.0110
3513	opls_828	1	NGb	C0T	1	0.0	12.0110
3514	opls_829	1	NGb	C0U	1	0.0	12.0110
3515	opls_830	1	NGb	C0V	1	0.0	12.0110
3516	opls_831	1	NGb	C0W	1	0.0	12.0110
3517	opls_832	1	NGb	C0X	2	0.0	12.0110
3518	opls_833	1	NGb	N0Y	2	0.0	14.0070
3519	opls_834	1	NGb	C0Z	2	0.0	12.0110
3520	opls_835	1	NGb	C10	2	0.0	12.0110
3521	opls_836	1	NGb	C11	2	0.0	12.0110
3522	opls_837	1	NGb	N12	2	0.0	14.0070
3523	opls_838	1	NGb	C13	2	0.0	12.0110
3524	opls_839	1	NGb	N14	2	0.0	14.0070
3525	opls_840	1	NGb	O15	2	0.0	15.9990
3526	opls_841	1	NGb	C16	2	0.0	12.0110
3527	opls_842	1	NGb	C17	2	0.0	12.0110
3528	opls_843	1	NGb	C18	2	0.0	12.0110
3529	opls_844	1	NGb	C19	2	0.0	12.0110
3530	opls_845	1	NGb	C1A	2	0.0	12.0110
3531	opls_846	1	NGb	C1B	2	0.0	12.0110
3532	opls_847	1	NGb	C1C	2	0.0	12.0110
3533	opls_848	1	NGb	C1D	2	0.0	12.0110
3534	opls_849	1	NGb	F1E	2	0.0	18.9984
3535	opls_850	1	NGb	F1F	2	0.0	18.9984
3536	opls_851	1	NGb	F1G	2	0.0	18.9984
3537	opls_852	1	NGb	C1H	2	0.0	12.0110
3538	opls_853	1	NGb	C1I	2	0.0	12.0110
3539	opls_854	1	NGb	C1J	2	0.0	12.0110
3540	opls_855	1	NGb	C1K	2	0.0	12.0110
3541	opls_856	1	NGb	C1M	2	0.0	12.0110
3542	opls_857	1	NGb	C1N	2	0.0	12.0110
3543	opls_858	1	NGb	C1O	2	0.0	12.0110
3544	opls_859	1	NGb	H1P	2	0.0	1.0080
3545	opls_860	1	NGb	H1Q	2	0.0	1.0080
3546	opls_861	1	NGb	H1R	2	0.0	1.0080
3547	opls_862	1	NGb	H1S	2	0.0	1.0080
3548	opls_863	1	NGb	H1T	2	0.0	1.0080
3549	opls_864	1	NGb	H1U	2	0.0	1.0080
3550	opls_865	1	NGb	H1V	3	0.0	1.0080
3551	opls_866	1	NGb	H1W	3	0.0	1.0080
3552	opls_867	1	NGb	H1X	3	0.0	1.0080
3553	opls_868	1	NGb	H1Y	3	0.0	1.0080
3554	opls_869	1	NGb	H1Z	3	0.0	1.0080
3555	opls_new	1	NGb	DUM	1	0.0	1.0
3556	opls_871	1	NGb	H21	3	0.0	1.0080
3557	opls_872	1	NGb	H22	3	0.0	1.0080
3558	opls_873	1	NGb	H23	3	0.0	1.0080
3559	opls_874	1	NGb	H24	3	0.0	1.0080
3560	opls_875	1	NGb	H25	3	0.0	1.0080
3561	opls_876	1	NGb	H26	3	0.0	1.0080
3562	opls_877	1	NGb	H27	3	0.0	1.0080
3563	opls_878	1	NGb	H28	3	0.0	1.0080
3564	opls_879	1	NGb	H29	3	0.0	1.0080
3565	opls_880	1	NGb	H2A	3	0.0	1.0080
3566	opls_881	1	NGb	H2B	3	0.0	1.0080
3567	opls_882	1	NGb	H2C	3	0.0	1.0080
3568	opls_883	1	NGb	H2D	3	0.0	1.0080
3569	opls_884	1	NGb	H2E	3	0.0	1.0080
3570	opls_885	1	NGb	H2F	3	0.0	1.0080
3571	opls_886	1	NGb	H2G	3	0.0	1.0080
3572	opls_887	1	NGb	H2H	3	0.0	1.0080
3573	opls_888	1	NGb	H2I	3	0.0	1.0080
3574	opls_889	1	NGb	H2J	3	0.0	1.0080
3575	opls_890	1	NGb	H2K	3	0.0	1.0080
3576	opls_891	1	NGb	H2M	3	0.0	1.0080
3577	opls_892	1	NGb	H2N	3	0.0	1.0080
3578	opls_893	1	NGb	H2O	3	0.0	1.0080
3579	opls_894	1	NGb	H2P	3	0.0	1.0080
3580	opls_895	1	NGb	H2Q	3	0.0	1.0080
3581	opls_896	1	NGb	H2R	3	0.0	1.0080
3582	opls_897	1	NGb	H2S	3	0.0	1.0080
3583	opls_898	1	NGb	H2T	4	0.0	1.0080
3584	opls_899	1	NGb	H2U	4	0.0	1.0080
3585	opls_800	1	NGb	C00	1	0.0	12.0110
3586	opls_801	1	NGb	N01	1	0.0	14.0070
3587	opls_802	1	NGb	C02	1	0.0	12.0110
3588	opls_803	1	NGb	C03	1	0.0	12.0110
3589	opls_804	1	NGb	O04	1	0.0	15.9990
3590	opls_805	1	NGb	C05	1	0.0	12.0110
3591	opls_806	1	NGb	C06	1	0.0	12.0110
3592	opls_807	1	NGb	C07	1	0.0	12.0110
3593	opls_808	1	NGb	C08	1	0.0	12.0110
3594	opls_809	1	NGb	C09	1	0.0	12.0110
3595	opls_810	1	NGb	C0A	1	0.0	12.0110
3596	opls_811	1	NGb	C0B	1	0.0	12.0110
3597	opls_812	1	NGb	C0C	1	0.0	12.0110
3598	opls_new	1	NGb	DUM	1	0.0	1.0
3599	opls_814	1	NGb	C0E	1	0.0	12.0110
3600	opls_815	1	NGb	C0F	1	0.0	12.0110
3601	opls_816	1	NGb	C0G	1	0.0	12.0110
3602	opls_817	1	NGb	C0H	1	0.0	12.0110
3603	opls_818	1	NGb	C0I	1	0.0	12.0110
3604	opls_819	1	NGb	C0J	1	0.0	12.0110
3605	opls_820	1	NGb	C0K	1	0.0	12.0110
3606	opls_821	1	NGb	C0M	1	0.0	12.0110
3607	opls_822	1	NGb	C0N	1	0.0	12.0110
3608	opls_823	1	NGb	C0O	1	0.0	12.0110
3609	opls_824	1	NGb	C0P	1	0.0	12.0110
3610	opls_825	1	NGb	C0Q	1	0.0	12.0110
3611	opls_826	1	NGb	C0R	1	0.0	12.0110
3612	opls_827	1	NGb	C0S	1	0.0	12.0110
3613	opls_828	1	NGb	C0T	1	0.0	12.0110
3614	opls_829	1	NGb	C0U	1	0.0	12.0110
3615	opls_830	1	NGb	C0V	1	0.0	12.0110
3616	opls_831	1	NGb	C0W	1	0.0	12.0110
3617	opls_832	1	NGb	C0X	2	0.0	12.0110
3618	opls_833	1	NGb	N0Y	2	0.0	14.0070
3619	opls_834	1	NGb	C0Z	2	0.0	12.0110
3620	opls_835	1	NGb	C10	2	0.0	12.0110
3621	opls_836	1	NGb	C11	2	0.0	12.0110
3622	opls_837	1	NGb	N12	2	0.0	14.0070
3623	opls_838	1	NGb	C13	2	0.0	12.0110
3624	opls_839	1	NGb	N14	2	0.0	14.0070
3625	opls_840	1	NGb	O15	2	0.0	15.9990
3626	opls_841	1	NGb	C16	2	0.0	12.0110
3627	opls_842	1	NGb	C17	2	0.0	12.0110
3628	opls_843	1	NGb	C18	2	0.0	12.0110
3629	opls_844	1	NGb	C19	2	0.0	12.0110
3630	opls_845	1	NGb	C1A	2	0.0	12.0110
3631	opls_846	1	NGb	C1B	2	0.0	12.0110
3632	opls_847	1	NGb	C1C	2	0.0	12.0110
3633	opls_848	1	NGb	C1D	2	0.0	12.0110
3634	opls_849	1	NGb	F1E	2	0.0	18.9984
3635	opls_850	1	NGb	F1F	2	0.0	18.9984
3636	opls_851	1	NGb	F1G	2	0.0	18.9984
3637	opls_852	1	NGb	C1H	2	0.0	12.0110
3638	opls_853	1	NGb	C1I	2	0.0	12.0110
3639	opls_854	1	NGb	C1J	2	0.0	12.0110
3640	opls_855	1	NGb	C1K	2	0.0	12.0110
3641	opls_856	1	NGb	C1M	2	0.0	12.0110
3642	opls_857	1	NGb	C1N	2	0.0	12.0110
3643	opls_858	1	NGb	C1O	2	0.0	12.0110
3644	opls_859	1	NGb	H1P	2	0.0	1.0080
3645	opls_860	1	NGb	H1Q	2	0.0	1.0080
3646	opls_861	1	NGb	H1R	2	0.0	1.0080
3647	opls_862	1	NGb	H1S	2	0.0	1.0080
3648	opls_863	1	NGb	H1T	2	0.0	1.0080
3649	opls_864	1	NGb	H1U	2	0.0	1.0080
3650	opls_865	1	NGb	H1V	3	0.0	1.0080
3651	opls_866	1	NGb	H1W	3	0.0	1.0080
3652	opls_867	1	NGb	H1X	3	0.0	1.0080
3653	opls_868	1	NGb	H1Y	3	0.0	1.0080
3654	opls_869	1	NGb	H1Z	3	0.0	1.0080
3655	opls_new	1	NGb	DUM	1	0.0	1.0
3656	opls_871	1	NGb	H21	3	0.0	1.0080
3657	opls_872	1	NGb	H22	3	0.0	1.0080
3658	opls_873	1	NGb	H23	3	0.0	1.0080
3659	opls_874	1	NGb	H24	3	0.0	1.0080
3660	opls_875	1	NGb	H25	3	0.0	1.0080
3661	opls_876	1	NGb	H26	3	0.0	1.0080
3662	opls_877	1	NGb	H27	3	0.0	1.0080
3663	opls_878	1	NGb	H28	3	0.0	1.0080
3664	opls_879	1	NGb	H29	3	0.0	1.0080
3665	opls_880	1	NGb	H2A	3	0.0	1.0080
3666	opls_881	1	NGb	H2B	3	0.0	1.0080
3667	opls_882	1	NGb	H2C	3	0.0	1.0080
3668	opls_883	1	NGb	H2D	3	0.0	1.0080
3669	opls_884	1	NGb	H2E	3	0.0	1.0080
3670	opls_885	1	NGb	H2F	3	0.0	1.0080
3671	opls_886	1	NGb	H2G	3	0.0	1.0080
3672	opls_887	1	NGb	H2H	3	0.0	1.0080
3673	opls_888	1	NGb	H2I	3	0.0	1.0080
3674	opls_889	1	NGb	H2J	3	0.0	1.0080
3675	opls_890	1	NGb	H2K	3	0.0	1.0080
3676	opls_891	1	NGb	H2M	3	0.0	1.0080
3677	opls_892	1	NGb	H2N	3	0.0	1.0080
3678	opls_893	1	NGb	H2O	3	0.0	1.0080
3679	opls_894	1	NGb	H2P	3	0.0	1.0080
3680	opls_895	1	NGb	H2Q	3	0.0	1.0080
3681	opls_896	1	NGb	H2R	3	0.0	1.0080
3682	opls_897	1	NGb	H2S	3	0.0	1.0080
3683	opls_898	1	NGb	H2T	4	0.0	1.0080
3684	opls_899	1	NGb	H2U	4	0.0	1.0080
3685	opls_800	1	NGb	C00	1	0.0	12.0110
3686	opls_801	1	NGb	N01	1	0.0	14.0070
3687	opls_802	1	NGb	C02	1	0.0	12.0110
3688	opls_803	1	NGb	C03	1	0.0	12.0110
3689	opls_804	1	NGb	O04	1	0.0	15.9990
3690	opls_805	1	NGb	C05	1	0.0	12.0110
3691	opls_806	1	NGb	C06	1	0.0	12.0110
3692	opls_807	1	NGb	C07	1	0.0	12.0110
3693	opls_808	1	NGb	C08	1	0.0	12.0110
3694	opls_809	1	NGb	C09	1	0.0	12.0110
3695	opls_810	1	NGb	C0A	1	0.0	12.0110
3696	opls_811	1	NGb	C0B	1	0.0	12.0110
3697	opls_812	1	NGb	C0C	1	0.0	12.0110
3698	opls_new	1	NGb	DUM	1	0.0	1.0
3699	opls_814	1	NGb	C0E	1	0.0	12.0110
3700	opls_815	1	NGb	C0F	1	0.0	12.0110
3701	opls_816	1	NGb	C0G	1	0.0	12.0110
3702	opls_817	1	NGb	C0H	1	0.0	12.0110
3703	opls_818	1	NGb	C0I	1	0.0	12.0110
3704	opls_819	1	NGb	C0J	1	0.0	12.0110
3705	opls_820	1	NGb	C0K	1	0.0	12.0110
3706	opls_821	1	NGb	C0M	1	0.0	12.0110
3707	opls_822	1	NGb	C0N	1	0.0	12.0110
3708	opls_823	1	NGb	C0O	1	0.0	12.0110
3709	opls_824	1	NGb	C0P	1	0.0	12.0110
3710	opls_825	1	NGb	C0Q	1	0.0	12.0110
3711	opls_826	1	NGb	C0R	1	0.0	12.0110
3712	opls_827	1	NGb	C0S	1	0.0	12.0110
3713	opls_828	1	NGb	C0T	1	0.0	12.0110
3714	opls_829	1	NGb	C0U	1	0.0	12.0110
3715	opls_830	1	NGb	C0V	1	0.0	12.0110
3716	opls_831	1	NGb	C0W	1	0.0	12.0110
3717	opls_832	1	NGb	C0X	2	0.0	12.0110
3718	opls_833	1	NGb	N0Y	2	0.0	14.0070
3719	opls_834	1	NGb	C0Z	2	0.0	12.0110
3720	opls_835	1	NGb	C10	2	0.0	12.0110
3721	opls_836	1	NGb	C11	2	0.0	12.0110
3722	opls_837	1	NGb	N12	2	0.0	14.0070
3723	opls_838	1	NGb	C13	2	0.0	12.0110
3724	opls_839	1	NGb	N14	2	0.0	14.0070
3725	opls_840	1	NGb	O15	2	0.0	15.9990
3726	opls_841	1	NGb	C16	2	0.0	12.0110
3727	opls_842	1	NGb	C17	2	0.0	12.0110
3728	opls_843	1	NGb	C18	2	0.0	12.0110
3729	opls_844	1	NGb	C19	2	0.0	12.0110
3730	opls_845	1	NGb	C1A	2	0.0	12.0110
3731	opls_846	1	NGb	C1B	2	0.0	12.0110
3732	opls_847	1	NGb	C1C	2	0.0	12.0110
3733	opls_848	1	NGb	C1D	2	0.0	12.0110
3734	opls_849	1	NGb	F1E	2	0.0	18.9984
3735	opls_850	1	NGb	F1F	2	0.0	18.9984
3736	opls_851	1	NGb	F1G	2	0.0	18.9984
3737	opls_852	1	NGb	C1H	2	0.0	12.0110
3738	opls_853	1	NGb	C1I	2	0.0	12.0110
3739	opls_854	1	NGb	C1J	2	0.0	12.0110
3740	opls_855	1	NGb	C1K	2	0.0	12.0110
3741	opls_856	1	NGb	C1M	2	0.0	12.0110
3742	opls_857	1	NGb	C1N	2	0.0	12.0110
3743	opls_858	1	NGb	C1O	2	0.0	12.0110
3744	opls_859	1	NGb	H1P	2	0.0	1.0080
3745	opls_860	1	NGb	H1Q	2	0.0	1.0080
3746	opls_861	1	NGb	H1R	2	0.0	1.0080
3747	opls_862	1	NGb	H1S	2	0.0	1.0080
3748	opls_863	1	NGb	H1T	2	0.0	1.0080
3749	opls_864	1	NGb	H1U	2	0.0	1.0080
3750	opls_865	1	NGb	H1V	3	0.0	1.0080
3751	opls_866	1	NGb	H1W	3	0.0	1.0080
3752	opls_867	1	NGb	H1X	3	0.0	1.0080
3753	opls_868	1	NGb	H1Y	3	0.0	1.0080
3754	opls_869	1	NGb	H1Z	3	0.0	1.0080
3755	opls_new	1	NGb	DUM	1	0.0	1.0
3756	opls_871	1	NGb	H21	3	0.0	1.0080
3757	opls_872	1	NGb	H22	3	0.0	1.0080
3758	opls_873	1	NGb	H23	3	0.0	1.0080
3759	opls_874	1	NGb	H24	3	0.0	1.0080
3760	opls_875	1	NGb	H25	3	0.0	1.0080
3761	opls_876	1	NGb	H26	3	0.0	1.0080
3762	opls_877	1	NGb	H27	3	0.0	1.0080
3763	opls_878	1	NGb	H28	3	0.0	1.0080
3764	opls_879	1	NGb	H29	3	0.0	1.0080
3765	opls_880	1	NGb	H2A	3	0.0	1.0080
3766	opls_881	1	NGb	H2B	3	0.0	1.0080
3767	opls_882	1	NGb	H2C	3	0.0	1.0080
3768	opls_883	1	NGb	H2D	3	0.0	1.0080
3769	opls_884	1	NGb	H2E	3	0.0	1.0080
3770	opls_885	1	NGb	H2F	3	0.0	1.0080
3771	opls_886	1	NGb	H2G	3	0.0	1.0080
3772	opls_887	1	NGb	H2H	3	0.0	1.0080
3773	opls_888	1	NGb	H2I	3	0.0	1.0080
3774	opls_889	1	NGb	H2J	3	0.0	1.0080
3775	opls_890	1	NGb	H2K	3	0.0	1.0080
3776	opls_891	1	NGb	H2M	3	0.0	1.0080
3777	opls_892	1	NGb	H2N	3	0.0	1.0080
3778	opls_893	1	NGb	H2O	3	0.0	1.0080
3779	opls_894	1	NGb	H2P	3	0.0	1.0080
3780	opls_895	1	NGb	H2Q	3	0.0	1.0080
3781	opls_896	1	NGb	H2R	3	0.0	1.0080
3782	opls_897	1	NGb	H2S	3	0.0	1.0080
3783	opls_898	1	NGb	H2T	4	0.0	1.0080
3784	opls_899	1	NGb	H2U	4	0.0	1.0080
3785	opls_800	1	NGb	C00	1	0.0	12.0110
3786	opls_801	1	NGb	N01	1	0.0	14.0070
3787	opls_802	1	NGb	C02	1	0.0	12.0110
3788	opls_803	1	NGb	C03	1	0.0	12.0110
3789	opls_804	1	NGb	O04	1	0.0	15.9990
3790	opls_805	1	NGb	C05	1	0.0	12.0110
3791	opls_806	1	NGb	C06	1	0.0	12.0110
3792	opls_807	1	NGb	C07	1	0.0	12.0110
3793	opls_808	1	NGb	C08	1	0.0	12.0110
3794	opls_809	1	NGb	C09	1	0.0	12.0110
3795	opls_810	1	NGb	C0A	1	0.0	12.0110
3796	opls_811	1	NGb	C0B	1	0.0	12.0110
3797	opls_812	1	NGb	C0C	1	0.0	12.0110
3798	opls_new	1	NGb	DUM	1	0.0	1.0
3799	opls_814	1	NGb	C0E	1	0.0	12.0110
3800	opls_815	1	NGb	C0F	1	0.0	12.0110
3801	opls_816	1	NGb	C0G	1	0.0	12.0110
3802	opls_817	1	NGb	C0H	1	0.0	12.0110
3803	opls_818	1	NGb	C0I	1	0.0	12.0110
3804	opls_819	1	NGb	C0J	1	0.0	12.0110
3805	opls_820	1	NGb	C0K	1	0.0	12.0110
3806	opls_821	1	NGb	C0M	1	0.0	12.0110
3807	opls_822	1	NGb	C0N	1	0.0	12.0110
3808	opls_823	1	NGb	C0O	1	0.0	12.0110
3809	opls_824	1	NGb	C0P	1	0.0	12.0110
3810	opls_825	1	NGb	C0Q	1	0.0	12.0110
3811	opls_826	1	NGb	C0R	1	0.0	12.0110
3812	opls_827	1	NGb	C0S	1	0.0	12.0110
3813	opls_828	1	NGb	C0T	1	0.0	12.0110
3814	opls_829	1	NGb	C0U	1	0.0	12.0110
3815	opls_830	1	NGb	C0V	1	0.0	12.0110
3816	opls_831	1	NGb	C0W	1	0.0	12.0110
3817	opls_832	1	NGb	C0X	2	0.0	12.0110
3818	opls_833	1	NGb	N0Y	2	0.0	14.0070
3819	opls_834	1	NGb	C0Z	2	0.0	12.0110
3820	opls_835	1	NGb	C10	2	0.0	12.0110
3821	opls_836	1	NGb	C11	2	0.0	12.0110
3822	opls_837	1	NGb	N12	2	0.0	14.0070
3823	opls_838	1	NGb	C13	2	0.0	12.0110
3824	opls_839	1	NGb	N14	2	0.0	14.0070
3825	opls_840	1	NGb	O15	2	0.0	15.9990
3826	opls_841	1	NGb	C16	2	0.0	12.0110
3827	opls_842	1	NGb	C17	2	0.0	12.0110
3828	opls_843	1	NGb	C18	2	0.0	12.0110
3829	opls_844	1	NGb	C19	2	0.0	12.0110
3830	opls_845	1	NGb	C1A	2	0.0	12.0110
3831	opls_846	1	NGb	C1B	2	0.0	12.0110
3832	opls_847	1	NGb	C1C	2	0.0	12.0110
3833	opls_848	1	NGb	C1D	2	0.0	12.0110
3834	opls_849	1	NGb	F1E	2	0.0	18.9984
3835	opls_850	1	NGb	F1F	2	0.0	18.9984
3836	opls_851	1	NGb	F1G	2	0.0	18.9984
3837	opls_852	1	NGb	C1H	2	0.0	12.0110
3838	opls_853	1	NGb	C1I	2	0.0	12.0110
3839	opls_854	1	NGb	C1J	2	0.0	12.0110
3840	opls_855	1	NGb	C1K	2	0.0	12.0110
3841	opls_856	1	NGb	C1M	2	0.0	12.0110
3842	opls_857	1	NGb	C1N	2	0.0	12.0110
3843	opls_858	1	NGb	C1O	2	0.0	12.0110
3844	opls_859	1	NGb	H1P	2	0.0	1.0080
3845	opls_860	1	NGb	H1Q	2	0.0	1.0080
3846	opls_861	1	NGb	H1R	2	0.0	1.0080
3847	opls_862	1	NGb	H1S	2	0.0	1.0080
3848	opls_863	1	NGb	H1T	2	0.0	1.0080
3849	opls_864	1	NGb	H1U	2	0.0	1.0080
3850	opls_865	1	NGb	H1V	3	0.0	1.0080
3851	opls_866	1	NGb	H1W	3	0.0	1.0080
3852	opls_867	1	NGb	H1X	3	0.0	1.0080
3853	opls_868	1	NGb	H1Y	3	0.0	1.0080
3854	opls_869	1	NGb	H1Z	3	0.0	1.0080
3855	opls_new	1	NGb	DUM	1	0.0	1.0
3856	opls_871	1	NGb	H21	3	0.0	1.0080
3857	opls_872	1	NGb	H22	3	0.0	1.0080
3858	opls_873	1	NGb	H23	3	0.0	1.0080
3859	opls_874	1	NGb	H24	3	0.0	1.0080
3860	opls_875	1	NGb	H25	3	0.0	1.0080
3861	opls_876	1	NGb	H26	3	0.0	1.0080
3862	opls_877	1	NGb	H27	3	0.0	1.0080
3863	opls_878	1	NGb	H28	3	0.0	1.0080
3864	opls_879	1	NGb	H29	3	0.0	1.0080
3865	opls_880	1	NGb	H2A	3	0.0	1.0080
3866	opls_881	1	NGb	H2B	3	0.0	1.0080
3867	opls_882	1	NGb	H2C	3	0.0	1.0080
3868	opls_883	1	NGb	H2D	3	0.0	1.0080
3869	opls_884	1	NGb	H2E	3	0.0	1.0080
3870	opls_885	1	NGb	H2F	3	0.0	1.0080
3871	opls_886	1	NGb	H2G	3	0.0	1.0080
3872	opls_887	1	NGb	H2H	3	0.0	1.0080
3873	opls_888	1	NGb	H2I	3	0.0	1.0080
3874	opls_889	1	NGb	H2J	3	0.0	1.0080
3875	opls_890	1	NGb	H2K	3	0.0	1.0080
3876	opls_891	1	NGb	H2M	3	0.0	1.0080
3877	opls_892	1	NGb	H2N	3	0.0	1.0080
3878	opls_893	1	NGb	H2O	3	0.0	1.0080
3879	opls_894	1	NGb	H2P	3	0.0	1.0080
3880	opls_895	1	NGb	H2Q	3	0.0	1.0080
3881	opls_896	1	NGb	H2R	3	0.0	1.0080
3882	opls_897	1	NGb	H2S	3	0.0	1.0080
3883	opls_898	1	NGb	H2T	4	0.0	1.0080
3884	opls_899	1	NGb	H2U	4	0.0	1.0080
3885	opls_800	1	NGb	C00	1	0.0	12.0110
3886	opls_801	1	NGb	N01	1	0.0	14.0070
3887	opls_802	1	NGb	C02	1	0.0	12.0110
3888	opls_803	1	NGb	C03	1	0.0	12.0110
3889	opls_804	1	NGb	O04	1	0.0	15.9990
3890	opls_805	1	NGb	C05	1	0.0	12.0110
3891	opls_806	1	NGb	C06	1	0.0	12.0110
3892	opls_807	1	NGb	C07	1	0.0	12.0110
3893	opls_808	1	NGb	C08	1	0.0	12.0110
3894	opls_809	1	NGb	C09	1	0.0	12.0110
3895	opls_810	1	NGb	C0A	1	0.0	12.0110
3896	opls_811	1	NGb	C0B	1	0.0	12.0110
3897	opls_812	1	NGb	C0C	1	0.0	12.0110
3898	opls_new	1	NGb	DUM	1	0.0	1.0
3899	opls_814	1	NGb	C0E	1	0.0	12.0110
3900	opls_815	1	NGb	C0F	1	0.0	12.0110
3901	opls_816	1	NGb	C0G	1	0.0	12.0110
3902	opls_817	1	NGb	C0H	1	0.0	12.0110
3903	opls_818	1	NGb	C0I	1	0.0	12.0110
3904	opls_819	1	NGb	C0J	1	0.0	12.0110
3905	opls_820	1	NGb	C0K	1	0.0	12.0110
3906	opls_821	1	NGb	C0M	1	0.0	12.0110
3907	opls_822	1	NGb	C0N	1	0.0	12.0110
3908	opls_823	1	NGb	C0O	1	0.0	12.0110
3909	opls_824	1	NGb	C0P	1	0.0	12.0110
3910	opls_825	1	NGb	C0Q	1	0.0	12.0110
3911	opls_826	1	NGb	C0R	1	0.0	12.0110
3912	opls_827	1	NGb	C0S	1	0.0	12.0110
3913	opls_828	1	NGb	C0T	1	0.0	12.0110
3914	opls_829	1	NGb	C0U	1	0.0	12.0110
3915	opls_830	1	NGb	C0V	1	0.0	12.0110
3916	opls_831	1	NGb	C0W	1	0.0	12.0110
3917	opls_832	1	NGb	C0X	2	0.0	12.0110
3918	opls_833	1	NGb	N0Y	2	0.0	14.0070
3919	opls_834	1	NGb	C0Z	2	0.0	12.0110
3920	opls_835	1	NGb	C10	2	0.0	12.0110
3921	opls_836	1	NGb	C11	2	0.0	12.0110
3922	opls_837	1	NGb	N12	2	0.0	14.0070
3923	opls_838	1	NGb	C13	2	0.0	12.0110
3924	opls_839	1	NGb	N14	2	0.0	14.0070
3925	opls_840	1	NGb	O15	2	0.0	15.9990
3926	opls_841	1	NGb	C16	2	0.0	12.0110
3927	opls_842	1	NGb	C17	2	0.0	12.0110
3928	opls_843	1	NGb	C18	2	0.0	12.0110
3929	opls_844	1	NGb	C19	2	0.0	12.0110
3930	opls_845	1	NGb	C1A	2	0.0	12.0110
3931	opls_846	1	NGb	C1B	2	0.0	12.0110
3932	opls_847	1	NGb	C1C	2	0.0	12.0110
3933	opls_848	1	NGb	C1D	2	0.0	12.0110
3934	opls_849	1	NGb	F1E	2	0.0	18.9984
3935	opls_850	1	NGb	F1F	2	0.0	18.9984
3936	opls_851	1	NGb	F1G	2	0.0	18.9984
3937	opls_852	1	NGb	C1H	2	0.0	12.0110
3938	opls_853	1	NGb	C1I	2	0.0	12.0110
3939	opls_854	1	NGb	C1J	2	0.0	12.0110
3940	opls_855	1	NGb	C1K	2	0.0	12.0110
3941	opls_856	1	NGb	C1M	2	0.0	12.0110
3942	opls_857	1	NGb	C1N	2	0.0	12.0110
3943	opls_858	1	NGb	C1O	2	0.0	12.0110
3944	opls_859	1	NGb	H1P	2	0.0	1.0080
3945	opls_860	1	NGb	H1Q	2	0.0	1.0080
3946	opls_861	1	NGb	H1R	2	0.0	1.0080
3947	opls_862	1	NGb	H1S	2	0.0	1.0080
3948	opls_863	1	NGb	H1T	2	0.0	1.0080
3949	opls_864	1	NGb	H1U	2	0.0	1.0080
3950	opls_865	1	NGb	H1V	3	0.0	1.0080
3951	opls_866	1	NGb	H1W	3	0.0	1.0080
3952	opls_867	1	NGb	H1X	3	0.0	1.0080
3953	opls_868	1	NGb	H1Y	3	0.0	1.0080
3954	opls_869	1	NGb	H1Z	3	0.0	1.0080
3955	opls_new	1	NGb	DUM	1	0.0	1.0
3956	opls_871	1	NGb	H21	3	0.0	1.0080
3957	opls_872	1	NGb	H22	3	0.0	1.0080
3958	opls_873	1	NGb	H23	3	0.0	1.0080
3959	opls_874	1	NGb	H24	3	0.0	1.0080
3960	opls_875	1	NGb	H25	3	0.0	1.0080
3961	opls_876	1	NGb	H26	3	0.0	1.0080
3962	opls_877	1	NGb	H27	3	0.0	1.0080
3963	opls_878	1	NGb	H28	3	0.0	1.0080
3964	opls_879	1	NGb	H29	3	0.0	1.0080
3965	opls_880	1	NGb	H2A	3	0.0	1.0080
3966	opls_881	1	NGb	H2B	3	0.0	1.0080
3967	opls_882	1	NGb	H2C	3	0.0	1.0080
3968	opls_883	1	NGb	H2D	3	0.0	1.0080
3969	opls_884	1	NGb	H2E	3	0.0	1.0080
3970	opls_885	1	NGb	H2F	3	0.0	1.0080
3971	opls_886	1	NGb	H2G	3	0.0	1.0080
3972	opls_887	1	NGb	H2H	3	0.0	1.0080
3973	opls_888	1	NGb	H2I	3	0.0	1.0080
3974	opls_889	1	NGb	H2J	3	0.0	1.0080
3975	opls_890	1	NGb	H2K	3	0.0	1.0080
3976	opls_891	1	NGb	H2M	3	0.0	1.0080
3977	opls_892	1	NGb	H2N	3	0.0	1.0080
3978	opls_893	1	NGb	H2O	3	0.0	1.0080
3979	opls_894	1	NGb	H2P	3	0.0	1.0080
3980	opls_895	1	NGb	H2Q	3	0.0	1.0080
3981	opls_896	1	NGb	H2R	3	0.0	1.0080
3982	opls_897	1	NGb	H2S	3	0.0	1.0080
3983	opls_898	1	NGb	H2T	4	0.0	1.0080
3984	opls_899	1	NGb	H2U	4	0.0	1.0080
3985	opls_800	1	NGb	C00	1	0.0	12.0110
3986	opls_801	1	NGb	N01	1	0.0	14.0070
3987	opls_802	1	NGb	C02	1	0.0	12.0110
3988	opls_803	1	NGb	C03	1	0.0	12.0110
3989	opls_804	1	NGb	O04	1	0.0	15.9990
3990	opls_805	1	NGb	C05	1	0.0	12.0110
3991	opls_806	1	NGb	C06	1	0.0	12.0110
3992	opls_807	1	NGb	C07	1	0.0	12.0110
3993	opls_808	1	NGb	C08	1	0.0	12.0110
3994	opls_809	1	NGb	C09	1	0.0	12.0110
3995	opls_810	1	NGb	C0A	1	0.0	12.0110
3996	opls_811	1	NGb	C0B	1	0.0	12.0110
3997	opls_812	1	NGb	C0C	1	0.0	12.0110
3998	opls_new	1	NGb	DUM	1	0.0	1.0
3999	opls_814	1	NGb	C0E	1	0.0	12.0110
4000	opls_815	1	NGb	C0F	1	0.0	12.0110
4001	opls_816	1	NGb	C0G	1	0.0	12.0110
4002	opls_817	1	NGb	C0H	1	0.0	12.0110
4003	opls_818	1	NGb	C0I	1	0.0	12.0110
4004	opls_819	1	NGb	C0J	1	0.0	12.0110
4005	opls_820	1	NGb	C0K	1	0.0	12.0110
4006	opls_821	1	NGb	C0M	1	0.0	12.0110
4007	opls_822	1	NGb	C0N	1	0.0	12.0110
4008	opls_823	1	NGb	C0O	1	0.0	12.0110
4009	opls_824	1	NGb	C0P	1	0.0	12.0110
4010	opls_825	1	NGb	C0Q	1	0.0	12.0110
4011	opls_826	1	NGb	C0R	1	0.0	12.0110
4012	opls_827	1	NGb	C0S	1	0.0	12.0110
4013	opls_828	1	NGb	C0T	1	0.0	12.0110
4014	opls_829	1	NGb	C0U	1	0.0	12.0110
4015	opls_830	1	NGb	C0V	1	0.0	12.0110
4016	opls_831	1	NGb	C0W	1	0.0	12.0110
4017	opls_832	1	NGb	C0X	2	0.0	12.0110
4018	opls_833	1	NGb	N0Y	2	0.0	14.0070
4019	opls_834	1	NGb	C0Z	2	0.0	12.0110
4020	opls_835	1	NGb	C10	2	0.0	12.0110
4021	opls_836	1	NGb	C11	2	0.0	12.0110
4022	opls_837	1	NGb	N12	2	0.0	14.0070
4023	opls_838	1	NGb	C13	2	0.0	12.0110
4024	opls_839	1	NGb	N14	2	0.0	14.0070
4025	opls_840	1	NGb	O15	2	0.0	15.9990
4026	opls_841	1	NGb	C16	2	0.0	12.0110
4027	opls_842	1	NGb	C17	2	0.0	12.0110
4028	opls_843	1	NGb	C18	2	0.0	12.0110
4029	opls_844	1	NGb	C19	2	0.0	12.0110
4030	opls_845	1	NGb	C1A	2	0.0	12.0110
4031	opls_846	1	NGb	C1B	2	0.0	12.0110
4032	opls_847	1	NGb	C1C	2	0.0	12.0110
4033	opls_848	1	NGb	C1D	2	0.0	12.0110
4034	opls_849	1	NGb	F1E	2	0.0	18.9984
4035	opls_850	1	NGb	F1F	2	0.0	18.9984
4036	opls_851	1	NGb	F1G	2	0.0	18.9984
4037	opls_852	1	NGb	C1H	2	0.0	12.0110
4038	opls_853	1	NGb	C1I	2	0.0	12.0110
4039	opls_854	1	NGb	C1J	2	0.0	12.0110
4040	opls_855	1	NGb	C1K	2	0.0	12.0110
4041	opls_856	1	NGb	C1M	2	0.0	12.0110
4042	opls_857	1	NGb	C1N	2	0.0	12.0110
4043	opls_858	1	NGb	C1O	2	0.0	12.0110
4044	opls_859	1	NGb	H1P	2	0.0	1.0080
4045	opls_860	1	NGb	H1Q	2	0.0	1.0080
4046	opls_861	1	NGb	H1R	2	0.0	1.0080
4047	opls_862	1	NGb	H1S	2	0.0	1.0080
4048	opls_863	1	NGb	H1T	2	0.0	1.0080
4049	opls_864	1	NGb	H1U	2	0.0	1.0080
4050	opls_865	1	NGb	H1V	3	0.0	1.0080
4051	opls_866	1	NGb	H1W	3	0.0	1.0080
4052	opls_867	1	NGb	H1X	3	0.0	1.0080
4053	opls_868	1	NGb	H1Y	3	0.0	1.0080
4054	opls_869	1	NGb	H1Z	3	0.0	1.0080
4055	opls_new	1	NGb	DUM	1	0.0	1.0
4056	opls_871	1	NGb	H21	3	0.0	1.0080
4057	opls_872	1	NGb	H22	3	0.0	1.0080
4058	opls_873	1	NGb	H23	3	0.0	1.0080
4059	opls_874	1	NGb	H24	3	0.0	1.0080
4060	opls_875	1	NGb	H25	3	0.0	1.0080
4061	opls_876	1	NGb	H26	3	0.0	1.0080
4062	opls_877	1	NGb	H27	3	0.0	1.0080
4063	opls_878	1	NGb	H28	3	0.0	1.0080
4064	opls_879	1	NGb	H29	3	0.0	1.0080
4065	opls_880	1	NGb	H2A	3	0.0	1.0080
4066	opls_881	1	NGb	H2B	3	0.0	1.0080
4067	opls_882	1	NGb	H2C	3	0.0	1.0080
4068	opls_883	1	NGb	H2D	3	0.0	1.0080
4069	opls_884	1	NGb	H2E	3	0.0	1.0080
4070	opls_885	1	NGb	H2F	3	0.0	1.0080
4071	opls_886	1	NGb	H2G	3	0.0	1.0080
4072	opls_887	1	NGb	H2H	3	0.0	1.0080
4073	opls_888	1	NGb	H2I	3	0.0	1.0080
4074	opls_889	1	NGb	H2J	3	0.0	1.0080
4075	opls_890	1	NGb	H2K	3	0.0	1.0080
4076	opls_891	1	NGb	H2M	3	0.0	1.0080
4077	opls_892	1	NGb	H2N	3	0.0	1.0080
4078	opls_893	1	NGb	H2O	3	0.0	1.0080
4079	opls_894	1	NGb	H2P	3	0.0	1.0080
4080	opls_895	1	NGb	H2Q	3	0.0	1.0080
4081	opls_896	1	NGb	H2R	3	0.0	1.0080
4082	opls_897	1	NGb	H2S	3	0.0	1.0080
4083	opls_898	1	NGb	H2T	4	0.0	1.0080
4084	opls_899	1	NGb	H2U	4	0.0	1.0080
4085	opls_800	1	NGb	C00	1	0.0	12.0110
4086	opls_801	1	NGb	N01	1	0.0	14.0070
4087	opls_802	1	NGb	C02	1	0.0	12.0110
4088	opls_803	1	NGb	C03	1	0.0	12.0110
4089	opls_804	1	NGb	O04	1	0.0	15.9990
4090	opls_805	1	NGb	C05	1	0.0	12.0110
4091	opls_806	1	NGb	C06	1	0.0	12.0110
4092	opls_807	1	NGb	C07	1	0.0	12.0110
4093	opls_808	1	NGb	C08	1	0.0	12.0110
4094	opls_809	1	NGb	C09	1	0.0	12.0110
4095	opls_810	1	NGb	C0A	1	0.0	12.0110
4096	opls_811	1	NGb	C0B	1	0.0	12.0110
4097	opls_812	1	NGb	C0C	1	0.0	12.0110
4098	opls_new	1	NGb	DUM	1	0.0	1.0
4099	opls_814	1	NGb	C0E	1	0.0	12.0110
4100	opls_815	1	NGb	C0F	1	0.0	12.0110
4101	opls_816	1	NGb	C0G	1	0.0	12.0110
4102	opls_817	1	NGb	C0H	1	0.0	12.0110
4103	opls_818	1	NGb	C0I	1	0.0	12.0110
4104	opls_819	1	NGb	C0J	1	0.0	12.0110
4105	opls_820	1	NGb	C0K	1	0.0	12.0110
4106	opls_821	1	NGb	C0M	1	0.0	12.0110
4107	opls_822	1	NGb	C0N	1	0.0	12.0110
4108	opls_823	1	NGb	C0O	1	0.0	12.0110
4109	opls_824	1	NGb	C0P	1	0.0	12.0110
4110	opls_825	1	NGb	C0Q	1	0.0	12.0110
4111	opls_826	1	NGb	C0R	1	0.0	12.0110
4112	opls_827	1	NGb	C0S	1	0.0	12.0110
4113	opls_828	1	NGb	C0T	1	0.0	12.0110
4114	opls_829	1	NGb	C0U	1	0.0	12.0110
4115	opls_830	1	NGb	C0V	1	0.0	12.0110
4116	opls_831	1	NGb	C0W	1	0.0	12.0110
4117	opls_832	1	NGb	C0X	2	0.0	12.0110
4118	opls_833	1	NGb	N0Y	2	0.0	14.0070
4119	opls_834	1	NGb	C0Z	2	0.0	12.0110
4120	opls_835	1	NGb	C10	2	0.0	12.0110
4121	opls_836	1	NGb	C11	2	0.0	12.0110
4122	opls_837	1	NGb	N12	2	0.0	14.0070
4123	opls_838	1	NGb	C13	2	0.0	12.0110
4124	opls_839	1	NGb	N14	2	0.0	14.0070
4125	opls_840	1	NGb	O15	2	0.0	15.9990
4126	opls_841	1	NGb	C16	2	0.0	12.0110
4127	opls_842	1	NGb	C17	2	0.0	12.0110
4128	opls_843	1	NGb	C18	2	0.0	12.0110
4129	opls_844	1	NGb	C19	2	0.0	12.0110
4130	opls_845	1	NGb	C1A	2	0.0	12.0110
4131	opls_846	1	NGb	C1B	2	0.0	12.0110
4132	opls_847	1	NGb	C1C	2	0.0	12.0110
4133	opls_848	1	NGb	C1D	2	0.0	12.0110
4134	opls_849	1	NGb	F1E	2	0.0	18.9984
4135	opls_850	1	NGb	F1F	2	0.0	18.9984
4136	opls_851	1	NGb	F1G	2	0.0	18.9984
4137	opls_852	1	NGb	C1H	2	0.0	12.0110
4138	opls_853	1	NGb	C1I	2	0.0	12.0110
4139	opls_854	1	NGb	C1J	2	0.0	12.0110
4140	opls_855	1	NGb	C1K	2	0.0	12.0110
4141	opls_856	1	NGb	C1M	2	0.0	12.0110
4142	opls_857	1	NGb	C1N	2	0.0	12.0110
4143	opls_858	1	NGb	C1O	2	0.0	12.0110
4144	opls_859	1	NGb	H1P	2	0.0	1.0080
4145	opls_860	1	NGb	H1Q	2	0.0	1.0080
4146	opls_861	1	NGb	H1R	2	0.0	1.0080
4147	opls_862	1	NGb	H1S	2	0.0	1.0080
4148	opls_863	1	NGb	H1T	2	0.0	1.0080
4149	opls_864	1	NGb	H1U	2	0.0	1.0080
4150	opls_865	1	NGb	H1V	3	0.0	1.0080
4151	opls_866	1	NGb	H1W	3	0.0	1.0080
4152	opls_867	1	NGb	H1X	3	0.0	1.0080
4153	opls_868	1	NGb	H1Y	3	0.0	1.0080
4154	opls_869	1	NGb	H1Z	3	0.0	1.0080
4155	opls_new	1	NGb	DUM	1	0.0	1.0
4156	opls_871	1	NGb	H21	3	0.0	1.0080
4157	opls_872	1	NGb	H22	3	0.0	1.0080
4158	opls_873	1	NGb	H23	3	0.0	1.0080
4159	opls_874	1	NGb	H24	3	0.0	1.0080
4160	opls_875	1	NGb	H25	3	0.0	1.0080
4161	opls_876	1	NGb	H26	3	0.0	1.0080
4162	opls_877	1	NGb	H27	3	0.0	1.0080
4163	opls_878	1	NGb	H28	3	0.0	1.0080
4164	opls_879	1	NGb	H29	3	0.0	1.0080
4165	opls_880	1	NGb	H2A	3	0.0	1.0080
4166	opls_881	1	NGb	H2B	3	0.0	1.0080
4167	opls_882	1	NGb	H2C	3	0.0	1.0080
4168	opls_883	1	NGb	H2D	3	0.0	1.0080
4169	opls_884	1	NGb	H2E	3	0.0	1.0080
4170	opls_885	1	NGb	H2F	3	0.0	1.0080
4171	opls_886	1	NGb	H2G	3	0.0	1.0080
4172	opls_887	1	NGb	H2H	3	0.0	1.0080
4173	opls_888	1	NGb	H2I	3	0.0	1.0080
4174	opls_889	1	NGb	H2J	3	0.0	1.0080
4175	opls_890	1	NGb	H2K	3	0.0	1.0080
4176	opls_891	1	NGb	H2M	3	0.0	1.0080
4177	opls_892	1	NGb	H2N	3	0.0	1.0080
4178	opls_893	1	NGb	H2O	3	0.0	1.0080
4179	opls_894	1	NGb	H2P	3	0.0	1.0080
4180	opls_895	1	NGb	H2Q	3	0.0	1.0080
4181	opls_896	1	NGb	H2R	3	0.0	1.0080
4182	opls_897	1	NGb	H2S	3	0.0	1.0080
4183	opls_898	1	NGb	H2T	4	0.0	1.0080
4184	opls_899	1	NGb	H2U	4	0.0	1.0080
4185	opls_800	1	NGb	C00	1	0.0	12.0110
4186	opls_801	1	NGb	N01	1	0.0	14.0070
4187	opls_802	1	NGb	C02	1	0.0	12.0110
4188	opls_803	1	NGb	C03	1	0.0	12.0110
4189	opls_804	1	NGb	O04	1	0.0	15.9990
4190	opls_805	1	NGb	C05	1	0.0	12.0110
4191	opls_806	1	NGb	C06	1	0.0	12.0110
4192	opls_807	1	NGb	C07	1	0.0	12.0110
4193	opls_808	1	NGb	C08	1	0.0	12.0110
4194	opls_809	1	NGb	C09	1	0.0	12.0110
4195	opls_810	1	NGb	C0A	1	0.0	12.0110
4196	opls_811	1	NGb	C0B	1	0.0	12.0110
4197	opls_812	1	NGb	C0C	1	0.0	12.0110
4198	opls_new	1	NGb	DUM	1	0.0	1.0
4199	opls_814	1	NGb	C0E	1	0.0	12.0110
4200	opls_815	1	NGb	C0F	1	0.0	12.0110
4201	opls_816	1	NGb	C0G	1	0.0	12.0110
4202	opls_817	1	NGb	C0H	1	0.0	12.0110
4203	opls_818	1	NGb	C0I	1	0.0	12.0110
4204	opls_819	1	NGb	C0J	1	0.0	12.0110
4205	opls_820	1	NGb	C0K	1	0.0	12.0110
4206	opls_821	1	NGb	C0M	1	0.0	12.0110
4207	opls_822	1	NGb	C0N	1	0.0	12.0110
4208	opls_823	1	NGb	C0O	1	0.0	12.0110
4209	opls_824	1	NGb	C0P	1	0.0	12.0110
4210	opls_825	1	NGb	C0Q	1	0.0	12.0110
4211	opls_826	1	NGb	C0R	1	0.0	12.0110
4212	opls_827	1	NGb	C0S	1	0.0	12.0110
4213	opls_828	1	NGb	C0T	1	0.0	12.0110
4214	opls_829	1	NGb	C0U	1	0.0	12.0110
4215	opls_830	1	NGb	C0V	1	0.0	12.0110
4216	opls_831	1	NGb	C0W	1	0.0	12.0110
4217	opls_832	1	NGb	C0X	2	0.0	12.0110
4218	opls_833	1	NGb	N0Y	2	0.0	14.0070
4219	opls_834	1	NGb	C0Z	2	0.0	12.0110
4220	opls_835	1	NGb	C10	2	0.0	12.0110
4221	opls_836	1	NGb	C11	2	0.0	12.0110
4222	opls_837	1	NGb	N12	2	0.0	14.0070
4223	opls_838	1	NGb	C13	2	0.0	12.0110
4224	opls_839	1	NGb	N14	2	0.0	14.0070
4225	opls_840	1	NGb	O15	2	0.0	15.9990
4226	opls_841	1	NGb	C16	2	0.0	12.0110
4227	opls_842	1	NGb	C17	2	0.0	12.0110
4228	opls_843	1	NGb	C18	2	0.0	12.0110
4229	opls_844	1	NGb	C19	2	0.0	12.0110
4230	opls_845	1	NGb	C1A	2	0.0	12.0110
4231	opls_846	1	NGb	C1B	2	0.0	12.0110
4232	opls_847	1	NGb	C1C	2	0.0	12.0110
4233	opls_848	1	NGb	C1D	2	0.0	12.0110
4234	opls_849	1	NGb	F1E	2	0.0	18.9984
4235	opls_850	1	NGb	F1F	2	0.0	18.9984
4236	opls_851	1	NGb	F1G	2	0.0	18.9984
4237	opls_852	1	NGb	C1H	2	0.0	12.0110
4238	opls_853	1	NGb	C1I	2	0.0	12.0110
4239	opls_854	1	NGb	C1J	2	0.0	12.0110
4240	opls_855	1	NGb	C1K	2	0.0	12.0110
4241	opls_856	1	NGb	C1M	2	0.0	12.0110
4242	opls_857	1	NGb	C1N	2	0.0	12.0110
4243	opls_858	1	NGb	C1O	2	0.0	12.0110
4244	opls_859	1	NGb	H1P	2	0.0	1.0080
4245	opls_860	1	NGb	H1Q	2	0.0	1.0080
4246	opls_861	1	NGb	H1R	2	0.0	1.0080
4247	opls_862	1	NGb	H1S	2	0.0	1.0080
4248	opls_863	1	NGb	H1T	2	0.0	1.0080
4249	opls_864	1	NGb	H1U	2	0.0	1.0080
4250	opls_865	1	NGb	H1V	3	0.0	1.0080
4251	opls_866	1	NGb	H1W	3	0.0	1.0080
4252	opls_867	1	NGb	H1X	3	0.0	1.0080
4253	opls_868	1	NGb	H1Y	3	0.0	1.0080
4254	opls_869	1	NGb	H1Z	3	0.0	1.0080
4255	opls_new	1	NGb	DUM	1	0.0	1.0
4256	opls_871	1	NGb	H21	3	0.0	1.0080
4257	opls_872	1	NGb	H22	3	0.0	1.0080
4258	opls_873	1	NGb	H23	3	0.0	1.0080
4259	opls_874	1	NGb	H24	3	0.0	1.0080
4260	opls_875	1	NGb	H25	3	0.0	1.0080
4261	opls_876	1	NGb	H26	3	0.0	1.0080
4262	opls_877	1	NGb	H27	3	0.0	1.0080
4263	opls_878	1	NGb	H28	3	0.0	1.0080
4264	opls_879	1	NGb	H29	3	0.0	1.0080
4265	opls_880	1	NGb	H2A	3	0.0	1.0080
4266	opls_881	1	NGb	H2B	3	0.0	1.0080
4267	opls_882	1	NGb	H2C	3	0.0	1.0080
4268	opls_883	1	NGb	H2D	3	0.0	1.0080
4269	opls_884	1	NGb	H2E	3	0.0	1.0080
4270	opls_885	1	NGb	H2F	3	0.0	1.0080
4271	opls_886	1	NGb	H2G	3	0.0	1.0080
4272	opls_887	1	NGb	H2H	3	0.0	1.0080
4273	opls_888	1	NGb	H2I	3	0.0	1.0080
4274	opls_889	1	NGb	H2J	3	0.0	1.0080
4275	opls_890	1	NGb	H2K	3	0.0	1.0080
4276	opls_891	1	NGb	H2M	3	0.0	1.0080
4277	opls_892	1	NGb	H2N	3	0.0	1.0080
4278	opls_893	1	NGb	H2O	3	0.0	1.0080
4279	opls_894	1	NGb	H2P	3	0.0	1.0080
4280	opls_895	1	NGb	H2Q	3	0.0	1.0080
4281	opls_896	1	NGb	H2R	3	0.0	1.0080
4282	opls_897	1	NGb	H2S	3	0.0	1.0080
4283	opls_898	1	NGb	H2T	4	0.0	1.0080
4284	opls_899	1	NGb	H2U	4	0.0	1.0080
4285	opls_800	1	NGb	C00	1	0.0	12.0110
4286	opls_801	1	NGb	N01	1	0.0	14.0070
4287	opls_802	1	NGb	C02	1	0.0	12.0110
4288	opls_803	1	NGb	C03	1	0.0	12.0110
4289	opls_804	1	NGb	O04	1	0.0	15.9990
4290	opls_805	1	NGb	C05	1	0.0	12.0110
4291	opls_806	1	NGb	C06	1	0.0	12.0110
4292	opls_807	1	NGb	C07	1	0.0	12.0110
4293	opls_808	1	NGb	C08	1	0.0	12.0110
4294	opls_809	1	NGb	C09	1	0.0	12.0110
4295	opls_810	1	NGb	C0A	1	0.0	12.0110
4296	opls_811	1	NGb	C0B	1	0.0	12.0110
4297	opls_812	1	NGb	C0C	1	0.0	12.0110
4298	opls_new	1	NGb	DUM	1	0.0	1.0
4299	opls_814	1	NGb	C0E	1	0.0	12.0110
4300	opls_815	1	NGb	C0F	1	0.0	12.0110
4301	opls_816	1	NGb	C0G	1	0.0	12.0110
4302	opls_817	1	NGb	C0H	1	0.0	12.0110
4303	opls_818	1	NGb	C0I	1	0.0	12.0110
4304	opls_819	1	NGb	C0J	1	0.0	12.0110
4305	opls_820	1	NGb	C0K	1	0.0	12.0110
4306	opls_821	1	NGb	C0M	1	0.0	12.0110
4307	opls_822	1	NGb	C0N	1	0.0	12.0110
4308	opls_823	1	NGb	C0O	1	0.0	12.0110
4309	opls_824	1	NGb	C0P	1	0.0	12.0110
4310	opls_825	1	NGb	C0Q	1	0.0	12.0110
4311	opls_826	1	NGb	C0R	1	0.0	12.0110
4312	opls_827	1	NGb	C0S	1	0.0	12.0110
4313	opls_828	1	NGb	C0T	1	0.0	12.0110
4314	opls_829	1	NGb	C0U	1	0.0	12.0110
4315	opls_830	1	NGb	C0V	1	0.0	12.0110
4316	opls_831	1	NGb	C0W	1	0.0	12.0110
4317	opls_832	1	NGb	C0X	2	0.0	12.0110
4318	opls_833	1	NGb	N0Y	2	0.0	14.0070
4319	opls_834	1	NGb	C0Z	2	0.0	12.0110
4320	opls_835	1	NGb	C10	2	0.0	12.0110
4321	opls_836	1	NGb	C11	2	0.0	12.0110
4322	opls_837	1	NGb	N12	2	0.0	14.0070
4323	opls_838	1	NGb	C13	2	0.0	12.0110
4324	opls_839	1	NGb	N14	2	0.0	14.0070
4325	opls_840	1	NGb	O15	2	0.0	15.9990
4326	opls_841	1	NGb	C16	2	0.0	12.0110
4327	opls_842	1	NGb	C17	2	0.0	12.0110
4328	opls_843	1	NGb	C18	2	0.0	12.0110
4329	opls_844	1	NGb	C19	2	0.0	12.0110
4330	opls_845	1	NGb	C1A	2	0.0	12.0110
4331	opls_846	1	NGb	C1B	2	0.0	12.0110
4332	opls_847	1	NGb	C1C	2	0.0	12.0110
4333	opls_848	1	NGb	C1D	2	0.0	12.0110
4334	opls_849	1	NGb	F1E	2	0.0	18.9984
4335	opls_850	1	NGb	F1F	2	0.0	18.9984
4336	opls_851	1	NGb	F1G	2	0.0	18.9984
4337	opls_852	1	NGb	C1H	2	0.0	12.0110
4338	opls_853	1	NGb	C1I	2	0.0	12.0110
4339	opls_854	1	NGb	C1J	2	0.0	12.0110
4340	opls_855	1	NGb	C1K	2	0.0	12.0110
4341	opls_856	1	NGb	C1M	2	0.0	12.0110
4342	opls_857	1	NGb	C1N	2	0.0	12.0110
4343	opls_858	1	NGb	C1O	2	0.0	12.0110
4344	opls_859	1	NGb	H1P	2	0.0	1.0080
4345	opls_860	1	NGb	H1Q	2	0.0	1.0080
4346	opls_861	1	NGb	H1R	2	0.0	1.0080
4347	opls_862	1	NGb	H1S	2	0.0	1.0080
4348	opls_863	1	NGb	H1T	2	0.0	1.0080
4349	opls_864	1	NGb	H1U	2	0.0	1.0080
4350	opls_865	1	NGb	H1V	3	0.0	1.0080
4351	opls_866	1	NGb	H1W	3	0.0	1.0080
4352	opls_867	1	NGb	H1X	3	0.0	1.0080
4353	opls_868	1	NGb	H1Y	3	0.0	1.0080
4354	opls_869	1	NGb	H1Z	3	0.0	1.0080
4355	opls_new	1	NGb	DUM	1	0.0	1.0
4356	opls_871	1	NGb	H21	3	0.0	1.0080
4357	opls_872	1	NGb	H22	3	0.0	1.0080
4358	opls_873	1	NGb	H23	3	0.0	1.0080
4359	opls_874	1	NGb	H24	3	0.0	1.0080
4360	opls_875	1	NGb	H25	3	0.0	1.0080
4361	opls_876	1	NGb	H26	3	0.0	1.0080
4362	opls_877	1	NGb	H27	3	0.0	1.0080
4363	opls_878	1	NGb	H28	3	0.0	1.0080
4364	opls_879	1	NGb	H29	3	0.0	1.0080
4365	opls_880	1	NGb	H2A	3	0.0	1.0080
4366	opls_881	1	NGb	H2B	3	0.0	1.0080
4367	opls_882	1	NGb	H2C	3	0.0	1.0080
4368	opls_883	1	NGb	H2D	3	0.0	1.0080
4369	opls_884	1	NGb	H2E	3	0.0	1.0080
4370	opls_885	1	NGb	H2F	3	0.0	1.0080
4371	opls_886	1	NGb	H2G	3	0.0	1.0080
4372	opls_887	1	NGb	H2H	3	0.0	1.0080
4373	opls_888	1	NGb	H2I	3	0.0	1.0080
4374	opls_889	1	NGb	H2J	3	0.0	1.0080
4375	opls_890	1	NGb	H2K	3	0.0	1.0080
4376	opls_891	1	NGb	H2M	3	0.0	1.0080
4377	opls_892	1	NGb	H2N	3	0.0	1.0080
4378	opls_893	1	NGb	H2O	3	0.0	1.0080
4379	opls_894	1	NGb	H2P	3	0.0	1.0080
4380	opls_895	1	NGb	H2Q	3	0.0	1.0080
4381	opls_896	1	NGb	H2R	3	0.0	1.0080
4382	opls_897	1	NGb	H2S	3	0.0	1.0080
4383	opls_898	1	NGb	H2T	4	0.0	1.0080
4384	opls_899	1	NGb	H2U	4	0.0	1.0080
4385	opls_800	1	NGb	C00	1	0.0	12.0110
4386	opls_801	1	NGb	N01	1	0.0	14.0070
4387	opls_802	1	NGb	C02	1	0.0	12.0110
4388	opls_803	1	NGb	C03	1	0.0	12.0110
4389	opls_804	1	NGb	O04	1	0.0	15.9990
4390	opls_805	1	NGb	C05	1	0.0	12.0110
4391	opls_806	1	NGb	C06	1	0.0	12.0110
4392	opls_807	1	NGb	C07	1	0.0	12.0110
4393	opls_808	1	NGb	C08	1	0.0	12.0110
4394	opls_809	1	NGb	C09	1	0.0	12.0110
4395	opls_810	1	NGb	C0A	1	0.0	12.0110
4396	opls_811	1	NGb	C0B	1	0.0	12.0110
4397	opls_812	1	NGb	C0C	1	0.0	12.0110
4398	opls_new	1	NGb	DUM	1	0.0	1.0
4399	opls_814	1	NGb	C0E	1	0.0	12.0110
4400	opls_815	1	NGb	C0F	1	0.0	12.0110
4401	opls_816	1	NGb	C0G	1	0.0	12.0110
4402	opls_817	1	NGb	C0H	1	0.0	12.0110
4403	opls_818	1	NGb	C0I	1	0.0	12.0110
4404	opls_819	1	NGb	C0J	1	0.0	12.0110
4405	opls_820	1	NGb	C0K	1	0.0	12.0110
4406	opls_821	1	NGb	C0M	1	0.0	12.0110
4407	opls_822	1	NGb	C0N	1	0.0	12.0110
4408	opls_823	1	NGb	C0O	1	0.0	12.0110
4409	opls_824	1	NGb	C0P	1	0.0	12.0110
4410	opls_825	1	NGb	C0Q	1	0.0	12.0110
4411	opls_826	1	NGb	C0R	1	0.0	12.0110
4412	opls_827	1	NGb	C0S	1	0.0	12.0110
4413	opls_828	1	NGb	C0T	1	0.0	12.0110
4414	opls_829	1	NGb	C0U	1	0.0	12.0110
4415	opls_830	1	NGb	C0V	1	0.0	12.0110
4416	opls_831	1	NGb	C0W	1	0.0	12.0110
4417	opls_832	1	NGb	C0X	2	0.0	12.0110
4418	opls_833	1	NGb	N0Y	2	0.0	14.0070
4419	opls_834	1	NGb	C0Z	2	0.0	12.0110
4420	opls_835	1	NGb	C10	2	0.0	12.0110
4421	opls_836	1	NGb	C11	2	0.0	12.0110
4422	opls_837	1	NGb	N12	2	0.0	14.0070
4423	opls_838	1	NGb	C13	2	0.0	12.0110
4424	opls_839	1	NGb	N14	2	0.0	14.0070
4425	opls_840	1	NGb	O15	2	0.0	15.9990
4426	opls_841	1	NGb	C16	2	0.0	12.0110
4427	opls_842	1	NGb	C17	2	0.0	12.0110
4428	opls_843	1	NGb	C18	2	0.0	12.0110
4429	opls_844	1	NGb	C19	2	0.0	12.0110
4430	opls_845	1	NGb	C1A	2	0.0	12.0110
4431	opls_846	1	NGb	C1B	2	0.0	12.0110
4432	opls_847	1	NGb	C1C	2	0.0	12.0110
4433	opls_848	1	NGb	C1D	2	0.0	12.0110
4434	opls_849	1	NGb	F1E	2	0.0	18.9984
4435	opls_850	1	NGb	F1F	2	0.0	18.9984
4436	opls_851	1	NGb	F1G	2	0.0	18.9984
4437	opls_852	1	NGb	C1H	2	0.0	12.0110
4438	opls_853	1	NGb	C1I	2	0.0	12.0110
4439	opls_854	1	NGb	C1J	2	0.0	12.0110
4440	opls_855	1	NGb	C1K	2	0.0	12.0110
4441	opls_856	1	NGb	C1M	2	0.0	12.0110
4442	opls_857	1	NGb	C1N	2	0.0	12.0110
4443	opls_858	1	NGb	C1O	2	0.0	12.0110
4444	opls_859	1	NGb	H1P	2	0.0	1.0080
4445	opls_860	1	NGb	H1Q	2	0.0	1.0080
4446	opls_861	1	NGb	H1R	2	0.0	1.0080
4447	opls_862	1	NGb	H1S	2	0.0	1.0080
4448	opls_863	1	NGb	H1T	2	0.0	1.0080
4449	opls_864	1	NGb	H1U	2	0.0	1.0080
4450	opls_865	1	NGb	H1V	3	0.0	1.0080
4451	opls_866	1	NGb	H1W	3	0.0	1.0080
4452	opls_867	1	NGb	H1X	3	0.0	1.0080
4453	opls_868	1	NGb	H1Y	3	0.0	1.0080
4454	opls_869	1	NGb	H1Z	3	0.0	1.0080
4455	opls_new	1	NGb	DUM	1	0.0	1.0
4456	opls_871	1	NGb	H21	3	0.0	1.0080
4457	opls_872	1	NGb	H22	3	0.0	1.0080
4458	opls_873	1	NGb	H23	3	0.0	1.0080
4459	opls_874	1	NGb	H24	3	0.0	1.0080
4460	opls_875	1	NGb	H25	3	0.0	1.0080
4461	opls_876	1	NGb	H26	3	0.0	1.0080
4462	opls_877	1	NGb	H27	3	0.0	1.0080
4463	opls_878	1	NGb	H28	3	0.0	1.0080
4464	opls_879	1	NGb	H29	3	0.0	1.0080
4465	opls_880	1	NGb	H2A	3	0.0	1.0080
4466	opls_881	1	NGb	H2B	3	0.0	1.0080
4467	opls_882	1	NGb	H2C	3	0.0	1.0080
4468	opls_883	1	NGb	H2D	3	0.0	1.0080
4469	opls_884	1	NGb	H2E	3	0.0	1.0080
4470	opls_885	1	NGb	H2F	3	0.0	1.0080
4471	opls_886	1	NGb	H2G	3	0.0	1.0080
4472	opls_887	1	NGb	H2H	3	0.0	1.0080
4473	opls_888	1	NGb	H2I	3	0.0	1.0080
4474	opls_889	1	NGb	H2J	3	0.0	1.0080
4475	opls_890	1	NGb	H2K	3	0.0	1.0080
4476	opls_891	1	NGb	H2M	3	0.0	1.0080
4477	opls_892	1	NGb	H2N	3	0.0	1.0080
4478	opls_893	1	NGb	H2O	3	0.0	1.0080
4479	opls_894	1	NGb	H2P	3	0.0	1.0080
4480	opls_895	1	NGb	H2Q	3	0.0	1.0080
4481	opls_896	1	NGb	H2R	3	0.0	1.0080
4482	opls_897	1	NGb	H2S	3	0.0	1.0080
4483	opls_898	1	NGb	H2T	4	0.0	1.0080
4484	opls_899	1	NGb	H2U	4	0.0	1.0080
4485	opls_800	1	NGb	C00	1	0.0	12.0110
4486	opls_801	1	NGb	N01	1	0.0	14.0070
4487	opls_802	1	NGb	C02	1	0.0	12.0110
4488	opls_803	1	NGb	C03	1	0.0	12.0110
4489	opls_804	1	NGb	O04	1	0.0	15.9990
4490	opls_805	1	NGb	C05	1	0.0	12.0110
4491	opls_806	1	NGb	C06	1	0.0	12.0110
4492	opls_807	1	NGb	C07	1	0.0	12.0110
4493	opls_808	1	NGb	C08	1	0.0	12.0110
4494	opls_809	1	NGb	C09	1	0.0	12.0110
4495	opls_810	1	NGb	C0A	1	0.0	12.0110
4496	opls_811	1	NGb	C0B	1	0.0	12.0110
4497	opls_812	1	NGb	C0C	1	0.0	12.0110
4498	opls_new	1	NGb	DUM	1	0.0	1.0
4499	opls_814	1	NGb	C0E	1	0.0	12.0110
4500	opls_815	1	NGb	C0F	1	0.0	12.0110
4501	opls_816	1	NGb	C0G	1	0.0	12.0110
4502	opls_817	1	NGb	C0H	1	0.0	12.0110
4503	opls_818	1	NGb	C0I	1	0.0	12.0110
4504	opls_819	1	NGb	C0J	1	0.0	12.0110
4505	opls_820	1	NGb	C0K	1	0.0	12.0110
4506	opls_821	1	NGb	C0M	1	0.0	12.0110
4507	opls_822	1	NGb	C0N	1	0.0	12.0110
4508	opls_823	1	NGb	C0O	1	0.0	12.0110
4509	opls_824	1	NGb	C0P	1	0.0	12.0110
4510	opls_825	1	NGb	C0Q	1	0.0	12.0110
4511	opls_826	1	NGb	C0R	1	0.0	12.0110
4512	opls_827	1	NGb	C0S	1	0.0	12.0110
4513	opls_828	1	NGb	C0T	1	0.0	12.0110
4514	opls_829	1	NGb	C0U	1	0.0	12.0110
4515	opls_830	1	NGb	C0V	1	0.0	12.0110
4516	opls_831	1	NGb	C0W	1	0.0	12.0110
4517	opls_832	1	NGb	C0X	2	0.0	12.0110
4518	opls_833	1	NGb	N0Y	2	0.0	14.0070
4519	opls_834	1	NGb	C0Z	2	0.0	12.0110
4520	opls_835	1	NGb	C10	2	0.0	12.0110
4521	opls_836	1	NGb	C11	2	0.0	12.0110
4522	opls_837	1	NGb	N12	2	0.0	14.0070
4523	opls_838	1	NGb	C13	2	0.0	12.0110
4524	opls_839	1	NGb	N14	2	0.0	14.0070
4525	opls_840	1	NGb	O15	2	0.0	15.9990
4526	opls_841	1	NGb	C16	2	0.0	12.0110
4527	opls_842	1	NGb	C17	2	0.0	12.0110
4528	opls_843	1	NGb	C18	2	0.0	12.0110
4529	opls_844	1	NGb	C19	2	0.0	12.0110
4530	opls_845	1	NGb	C1A	2	0.0	12.0110
4531	opls_846	1	NGb	C1B	2	0.0	12.0110
4532	opls_847	1	NGb	C1C	2	0.0	12.0110
4533	opls_848	1	NGb	C1D	2	0.0	12.0110
4534	opls_849	1	NGb	F1E	2	0.0	18.9984
4535	opls_850	1	NGb	F1F	2	0.0	18.9984
4536	opls_851	1	NGb	F1G	2	0.0	18.9984
4537	opls_852	1	NGb	C1H	2	0.0	12.0110
4538	opls_853	1	NGb	C1I	2	0.0	12.0110
4539	opls_854	1	NGb	C1J	2	0.0	12.0110
4540	opls_855	1	NGb	C1K	2	0.0	12.0110
4541	opls_856	1	NGb	C1M	2	0.0	12.0110
4542	opls_857	1	NGb	C1N	2	0.0	12.0110
4543	opls_858	1	NGb	C1O	2	0.0	12.0110
4544	opls_859	1	NGb	H1P	2	0.0	1.0080
4545	opls_860	1	NGb	H1Q	2	0.0	1.0080
4546	opls_861	1	NGb	H1R	2	0.0	1.0080
4547	opls_862	1	NGb	H1S	2	0.0	1.0080
4548	opls_863	1	NGb	H1T	2	0.0	1.0080
4549	opls_864	1	NGb	H1U	2	0.0	1.0080
4550	opls_865	1	NGb	H1V	3	0.0	1.0080
4551	opls_866	1	NGb	H1W	3	0.0	1.0080
4552	opls_867	1	NGb	H1X	3	0.0	1.0080
4553	opls_868	1	NGb	H1Y	3	0.0	1.0080
4554	opls_869	1	NGb	H1Z	3	0.0	1.0080
4555	opls_new	1	NGb	DUM	1	0.0	1.0
4556	opls_871	1	NGb	H21	3	0.0	1.0080
4557	opls_872	1	NGb	H22	3	0.0	1.0080
4558	opls_873	1	NGb	H23	3	0.0	1.0080
4559	opls_874	1	NGb	H24	3	0.0	1.0080
4560	opls_875	1	NGb	H25	3	0.0	1.0080
4561	opls_876	1	NGb	H26	3	0.0	1.0080
4562	opls_877	1	NGb	H27	3	0.0	1.0080
4563	opls_878	1	NGb	H28	3	0.0	1.0080
4564	opls_879	1	NGb	H29	3	0.0	1.0080
4565	opls_880	1	NGb	H2A	3	0.0	1.0080
4566	opls_881	1	NGb	H2B	3	0.0	1.0080
4567	opls_882	1	NGb	H2C	3	0.0	1.0080
4568	opls_883	1	NGb	H2D	3	0.0	1.0080
4569	opls_884	1	NGb	H2E	3	0.0	1.0080
4570	opls_885	1	NGb	H2F	3	0.0	1.0080
4571	opls_886	1	NGb	H2G	3	0.0	1.0080
4572	opls_887	1	NGb	H2H	3	0.0	1.0080
4573	opls_888	1	NGb	H2I	3	0.0	1.0080
4574	opls_889	1	NGb	H2J	3	0.0	1.0080
4575	opls_890	1	NGb	H2K	3	0.0	1.0080
4576	opls_891	1	NGb	H2M	3	0.0	1.0080
4577	opls_892	1	NGb	H2N	3	0.0	1.0080
4578	opls_893	1	NGb	H2O	3	0.0	1.0080
4579	opls_894	1	NGb	H2P	3	0.0	1.0080
4580	opls_895	1	NGb	H2Q	3	0.0	1.0080
4581	opls_896	1	NGb	H2R	3	0.0	1.0080
4582	opls_897	1	NGb	H2S	3	0.0	1.0080
4583	opls_898	1	NGb	H2T	4	0.0	1.0080
4584	opls_899	1	NGb	H2U	4	0.0	1.0080
4585	opls_800	1	NGb	C00	1	0.0	12.0110
4586	opls_801	1	NGb	N01	1	0.0	14.0070
4587	opls_802	1	NGb	C02	1	0.0	12.0110
4588	opls_803	1	NGb	C03	1	0.0	12.0110
4589	opls_804	1	NGb	O04	1	0.0	15.9990
4590	opls_805	1	NGb	C05	1	0.0	12.0110
4591	opls_806	1	NGb	C06	1	0.0	12.0110
4592	opls_807	1	NGb	C07	1	0.0	12.0110
4593	opls_808	1	NGb	C08	1	0.0	12.0110
4594	opls_809	1	NGb	C09	1	0.0	12.0110
4595	opls_810	1	NGb	C0A	1	0.0	12.0110
4596	opls_811	1	NGb	C0B	1	0.0	12.0110
4597	opls_812	1	NGb	C0C	1	0.0	12.0110
4598	opls_new	1	NGb	DUM	1	0.0	1.0
4599	opls_814	1	NGb	C0E	1	0.0	12.0110
4600	opls_815	1	NGb	C0F	1	0.0	12.0110
4601	opls_816	1	NGb	C0G	1	0.0	12.0110
4602	opls_817	1	NGb	C0H	1	0.0	12.0110
4603	opls_818	1	NGb	C0I	1	0.0	12.0110
4604	opls_819	1	NGb	C0J	1	0.0	12.0110
4605	opls_820	1	NGb	C0K	1	0.0	12.0110
4606	opls_821	1	NGb	C0M	1	0.0	12.0110
4607	opls_822	1	NGb	C0N	1	0.0	12.0110
4608	opls_823	1	NGb	C0O	1	0.0	12.0110
4609	opls_824	1	NGb	C0P	1	0.0	12.0110
4610	opls_825	1	NGb	C0Q	1	0.0	12.0110
4611	opls_826	1	NGb	C0R	1	0.0	12.0110
4612	opls_827	1	NGb	C0S	1	0.0	12.0110
4613	opls_828	1	NGb	C0T	1	0.0	12.0110
4614	opls_829	1	NGb	C0U	1	0.0	12.0110
4615	opls_830	1	NGb	C0V	1	0.0	12.0110
4616	opls_831	1	NGb	C0W	1	0.0	12.0110
4617	opls_832	1	NGb	C0X	2	0.0	12.0110
4618	opls_833	1	NGb	N0Y	2	0.0	14.0070
4619	opls_834	1	NGb	C0Z	2	0.0	12.0110
4620	opls_835	1	NGb	C10	2	0.0	12.0110
4621	opls_836	1	NGb	C11	2	0.0	12.0110
4622	opls_837	1	NGb	N12	2	0.0	14.0070
4623	opls_838	1	NGb	C13	2	0.0	12.0110
4624	opls_839	1	NGb	N14	2	0.0	14.0070
4625	opls_840	1	NGb	O15	2	0.0	15.9990
4626	opls_841	1	NGb	C16	2	0.0	12.0110
4627	opls_842	1	NGb	C17	2	0.0	12.0110
4628	opls_843	1	NGb	C18	2	0.0	12.0110
4629	opls_844	1	NGb	C19	2	0.0	12.0110
4630	opls_845	1	NGb	C1A	2	0.0	12.0110
4631	opls_846	1	NGb	C1B	2	0.0	12.0110
4632	opls_847	1	NGb	C1C	2	0.0	12.0110
4633	opls_848	1	NGb	C1D	2	0.0	12.0110
4634	opls_849	1	NGb	F1E	2	0.0	18.9984
4635	opls_850	1	NGb	F1F	2	0.0	18.9984
4636	opls_851	1	NGb	F1G	2	0.0	18.9984
4637	opls_852	1	NGb	C1H	2	0.0	12.0110
4638	opls_853	1	NGb	C1I	2	0.0	12.0110
4639	opls_854	1	NGb	C1J	2	0.0	12.0110
4640	opls_855	1	NGb	C1K	2	0.0	12.0110
4641	opls_856	1	NGb	C1M	2	0.0	12.0110
4642	opls_857	1	NGb	C1N	2	0.0	12.0110
4643	opls_858	1	NGb	C1O	2	0.0	12.0110
4644	opls_859	1	NGb	H1P	2	0.0	1.0080
4645	opls_860	1	NGb	H1Q	2	0.0	1.0080
4646	opls_861	1	NGb	H1R	2	0.0	1.0080
4647	opls_862	1	NGb	H1S	2	0.0	1.0080
4648	opls_863	1	NGb	H1T	2	0.0	1.0080
4649	opls_864	1	NGb	H1U	2	0.0	1.0080
4650	opls_865	1	NGb	H1V	3	0.0	1.0080
4651	opls_866	1	NGb	H1W	3	0.0	1.0080
4652	opls_867	1	NGb	H1X	3	0.0	1.0080
4653	opls_868	1	NGb	H1Y	3	0.0	1.0080
4654	opls_869	1	NGb	H1Z	3	0.0	1.0080
4655	opls_new	1	NGb	DUM	1	0.0	1.0
4656	opls_871	1	NGb	H21	3	0.0	1.0080
4657	opls_872	1	NGb	H22	3	0.0	1.0080
4658	opls_873	1	NGb	H23	3	0.0	1.0080
4659	opls_874	1	NGb	H24	3	0.0	1.0080
4660	opls_875	1	NGb	H25	3	0.0	1.0080
4661	opls_876	1	NGb	H26	3	0.0	1.0080
4662	opls_877	1	NGb	H27	3	0.0	1.0080
4663	opls_878	1	NGb	H28	3	0.0	1.0080
4664	opls_879	1	NGb	H29	3	0.0	1.0080
4665	opls_880	1	NGb	H2A	3	0.0	1.0080
4666	opls_881	1	NGb	H2B	3	0.0	1.0080
4667	opls_882	1	NGb	H2C	3	0.0	1.0080
4668	opls_883	1	NGb	H2D	3	0.0	1.0080
4669	opls_884	1	NGb	H2E	3	0.0	1.0080
4670	opls_885	1	NGb	H2F	3	0.0	1.0080
4671	opls_886	1	NGb	H2G	3	0.0	1.0080
4672	opls_887	1	NGb	H2H	3	0.0	1.0080
4673	opls_888	1	NGb	H2I	3	0.0	1.0080
4674	opls_889	1	NGb	H2J	3	0.0	1.0080
4675	opls_890	1	NGb	H2K	3	0.0	1.0080
4676	opls_891	1	NGb	H2M	3	0.0	1.0080
4677	opls_892	1	NGb	H2N	3	0.0	1.0080
4678	opls_893	1	NGb	H2O	3	0.0	1.0080
4679	opls_894	1	NGb	H2P	3	0.0	1.0080
4680	opls_895	1	NGb	H2Q	3	0.0	1.0080
4681	opls_896	1	NGb	H2R	3	0.0	1.0080
4682	opls_897	1	NGb	H2S	3	0.0	1.0080
4683	opls_898	1	NGb	H2T	4	0.0	1.0080
4684	opls_899	1	NGb	H2U	4	0.0	1.0080
4685	opls_800	1	NGb	C00	1	0.0	12.0110
4686	opls_801	1	NGb	N01	1	0.0	14.0070
4687	opls_802	1	NGb	C02	1	0.0	12.0110
4688	opls_803	1	NGb	C03	1	0.0	12.0110
4689	opls_804	1	NGb	O04	1	0.0	15.9990
4690	opls_805	1	NGb	C05	1	0.0	12.0110
4691	opls_806	1	NGb	C06	1	0.0	12.0110
4692	opls_807	1	NGb	C07	1	0.0	12.0110
4693	opls_808	1	NGb	C08	1	0.0	12.0110
4694	opls_809	1	NGb	C09	1	0.0	12.0110
4695	opls_810	1	NGb	C0A	1	0.0	12.0110
4696	opls_811	1	NGb	C0B	1	0.0	12.0110
4697	opls_812	1	NGb	C0C	1	0.0	12.0110
4698	opls_new	1	NGb	DUM	1	0.0	1.0
4699	opls_814	1	NGb	C0E	1	0.0	12.0110
4700	opls_815	1	NGb	C0F	1	0.0	12.0110
4701	opls_816	1	NGb	C0G	1	0.0	12.0110
4702	opls_817	1	NGb	C0H	1	0.0	12.0110
4703	opls_818	1	NGb	C0I	1	0.0	12.0110
4704	opls_819	1	NGb	C0J	1	0.0	12.0110
4705	opls_820	1	NGb	C0K	1	0.0	12.0110
4706	opls_821	1	NGb	C0M	1	0.0	12.0110
4707	opls_822	1	NGb	C0N	1	0.0	12.0110
4708	opls_823	1	NGb	C0O	1	0.0	12.0110
4709	opls_824	1	NGb	C0P	1	0.0	12.0110
4710	opls_825	1	NGb	C0Q	1	0.0	12.0110
4711	opls_826	1	NGb	C0R	1	0.0	12.0110
4712	opls_827	1	NGb	C0S	1	0.0	12.0110
4713	opls_828	1	NGb	C0T	1	0.0	12.0110
4714	opls_829	1	NGb	C0U	1	0.0	12.0110
4715	opls_830	1	NGb	C0V	1	0.0	12.0110
4716	opls_831	1	NGb	C0W	1	0.0	12.0110
4717	opls_832	1	NGb	C0X	2	0.0	12.0110
4718	opls_833	1	NGb	N0Y	2	0.0	14.0070
4719	opls_834	1	NGb	C0Z	2	0.0	12.0110
4720	opls_835	1	NGb	C10	2	0.0	12.0110
4721	opls_836	1	NGb	C11	2	0.0	12.0110
4722	opls_837	1	NGb	N12	2	0.0	14.0070
4723	opls_838	1	NGb	C13	2	0.0	12.0110
4724	opls_839	1	NGb	N14	2	0.0	14.0070
4725	opls_840	1	NGb	O15	2	0.0	15.9990
4726	opls_841	1	NGb	C16	2	0.0	12.0110
4727	opls_842	1	NGb	C17	2	0.0	12.0110
4728	opls_843	1	NGb	C18	2	0.0	12.0110
4729	opls_844	1	NGb	C19	2	0.0	12.0110
4730	opls_845	1	NGb	C1A	2	0.0	12.0110
4731	opls_846	1	NGb	C1B	2	0.0	12.0110
4732	opls_847	1	NGb	C1C	2	0.0	12.0110
4733	opls_848	1	NGb	C1D	2	0.0	12.0110
4734	opls_849	1	NGb	F1E	2	0.0	18.9984
4735	opls_850	1	NGb	F1F	2	0.0	18.9984
4736	opls_851	1	NGb	F1G	2	0.0	18.9984
4737	opls_852	1	NGb	C1H	2	0.0	12.0110
4738	opls_853	1	NGb	C1I	2	0.0	12.0110
4739	opls_854	1	NGb	C1J	2	0.0	12.0110
4740	opls_855	1	NGb	C1K	2	0.0	12.0110
4741	opls_856	1	NGb	C1M	2	0.0	12.0110
4742	opls_857	1	NGb	C1N	2	0.0	12.0110
4743	opls_858	1	NGb	C1O	2	0.0	12.0110
4744	opls_859	1	NGb	H1P	2	0.0	1.0080
4745	opls_860	1	NGb	H1Q	2	0.0	1.0080
4746	opls_861	1	NGb	H1R	2	0.0	1.0080
4747	opls_862	1	NGb	H1S	2	0.0	1.0080
4748	opls_863	1	NGb	H1T	2	0.0	1.0080
4749	opls_864	1	NGb	H1U	2	0.0	1.0080
4750	opls_865	1	NGb	H1V	3	0.0	1.0080
4751	opls_866	1	NGb	H1W	3	0.0	1.0080
4752	opls_867	1	NGb	H1X	3	0.0	1.0080
4753	opls_868	1	NGb	H1Y	3	0.0	1.0080
4754	opls_869	1	NGb	H1Z	3	0.0	1.0080
4755	opls_new	1	NGb	DUM	1	0.0	1.0
4756	opls_871	1	NGb	H21	3	0.0	1.0080
4757	opls_872	1	NGb	H22	3	0.0	1.0080
4758	opls_873	1	NGb	H23	3	0.0	1.0080
4759	opls_874	1	NGb	H24	3	0.0	1.0080
4760	opls_875	1	NGb	H25	3	0.0	1.0080
4761	opls_876	1	NGb	H26	3	0.0	1.0080
4762	opls_877	1	NGb	H27	3	0.0	1.0080
4763	opls_878	1	NGb	H28	3	0.0	1.0080
4764	opls_879	1	NGb	H29	3	0.0	1.0080
4765	opls_880	1	NGb	H2A	3	0.0	1.0080
4766	opls_881	1	NGb	H2B	3	0.0	1.0080
4767	opls_882	1	NGb	H2C	3	0.0	1.0080
4768	opls_883	1	NGb	H2D	3	0.0	1.0080
4769	opls_884	1	NGb	H2E	3	0.0	1.0080
4770	opls_885	1	NGb	H2F	3	0.0	1.0080
4771	opls_886	1	NGb	H2G	3	0.0	1.0080
4772	opls_887	1	NGb	H2H	3	0.0	1.0080
4773	opls_888	1	NGb	H2I	3	0.0	1.0080
4774	opls_889	1	NGb	H2J	3	0.0	1.0080
4775	opls_890	1	NGb	H2K	3	0.0	1.0080
4776	opls_891	1	NGb	H2M	3	0.0	1.0080
4777	opls_892	1	NGb	H2N	3	0.0	1.0080
4778	opls_893	1	NGb	H2O	3	0.0	1.0080
4779	opls_894	1	NGb	H2P	3	0.0	1.0080
4780	opls_895	1	NGb	H2Q	3	0.0	1.0080
4781	opls_896	1	NGb	H2R	3	0.0	1.0080
4782	opls_897	1	NGb	H2S	3	0.0	1.0080
4783	opls_898	1	NGb	H2T	4	0.0	1.0080
4784	opls_899	1	NGb	H2U	4	0.0	1.0080
4785	opls_800	1	NGb	C00	1	0.0	12.0110
4786	opls_801	1	NGb	N01	1	0.0	14.0070
4787	opls_802	1	NGb	C02	1	0.0	12.0110
4788	opls_803	1	NGb	C03	1	0.0	12.0110
4789	opls_804	1	NGb	O04	1	0.0	15.9990
4790	opls_805	1	NGb	C05	1	0.0	12.0110
4791	opls_806	1	NGb	C06	1	0.0	12.0110
4792	opls_807	1	NGb	C07	1	0.0	12.0110
4793	opls_808	1	NGb	C08	1	0.0	12.0110
4794	opls_809	1	NGb	C09	1	0.0	12.0110
4795	opls_810	1	NGb	C0A	1	0.0	12.0110
4796	opls_811	1	NGb	C0B	1	0.0	12.0110
4797	opls_812	1	NGb	C0C	1	0.0	12.0110
4798	opls_new	1	NGb	DUM	1	0.0	1.0
4799	opls_814	1	NGb	C0E	1	0.0	12.0110
4800	opls_815	1	NGb	C0F	1	0.0	12.0110
4801	opls_816	1	NGb	C0G	1	0.0	12.0110
4802	opls_817	1	NGb	C0H	1	0.0	12.0110
4803	opls_818	1	NGb	C0I	1	0.0	12.0110
4804	opls_819	1	NGb	C0J	1	0.0	12.0110
4805	opls_820	1	NGb	C0K	1	0.0	12.0110
4806	opls_821	1	NGb	C0M	1	0.0	12.0110
4807	opls_822	1	NGb	C0N	1	0.0	12.0110
4808	opls_823	1	NGb	C0O	1	0.0	12.0110
4809	opls_824	1	NGb	C0P	1	0.0	12.0110
4810	opls_825	1	NGb	C0Q	1	0.0	12.0110
4811	opls_826	1	NGb	C0R	1	0.0	12.0110
4812	opls_827	1	NGb	C0S	1	0.0	12.0110
4813	opls_828	1	NGb	C0T	1	0.0	12.0110
4814	opls_829	1	NGb	C0U	1	0.0	12.0110
4815	opls_830	1	NGb	C0V	1	0.0	12.0110
4816	opls_831	1	NGb	C0W	1	0.0	12.0110
4817	opls_832	1	NGb	C0X	2	0.0	12.0110
4818	opls_833	1	NGb	N0Y	2	0.0	14.0070
4819	opls_834	1	NGb	C0Z	2	0.0	12.0110
4820	opls_835	1	NGb	C10	2	0.0	12.0110
4821	opls_836	1	NGb	C11	2	0.0	12.0110
4822	opls_837	1	NGb	N12	2	0.0	14.0070
4823	opls_838	1	NGb	C13	2	0.0	12.0110
4824	opls_839	1	NGb	N14	2	0.0	14.0070
4825	opls_840	1	NGb	O15	2	0.0	15.9990
4826	opls_841	1	NGb	C16	2	0.0	12.0110
4827	opls_842	1	NGb	C17	2	0.0	12.0110
4828	opls_843	1	NGb	C18	2	0.0	12.0110
4829	opls_844	1	NGb	C19	2	0.0	12.0110
4830	opls_845	1	NGb	C1A	2	0.0	12.0110
4831	opls_846	1	NGb	C1B	2	0.0	12.0110
4832	opls_847	1	NGb	C1C	2	0.0	12.0110
4833	opls_848	1	NGb	C1D	2	0.0	12.0110
4834	opls_849	1	NGb	F1E	2	0.0	18.9984
4835	opls_850	1	NGb	F1F	2	0.0	18.9984
4836	opls_851	1	NGb	F1G	2	0.0	18.9984
4837	opls_852	1	NGb	C1H	2	0.0	12.0110
4838	opls_853	1	NGb	C1I	2	0.0	12.0110
4839	opls_854	1	NGb	C1J	2	0.0	12.0110
4840	opls_855	1	NGb	C1K	2	0.0	12.0110
4841	opls_856	1	NGb	C1M	2	0.0	12.0110
4842	opls_857	1	NGb	C1N	2	0.0	12.0110
4843	opls_858	1	NGb	C1O	2	0.0	12.0110
4844	opls_859	1	NGb	H1P	2	0.0	1.0080
4845	opls_860	1	NGb	H1Q	2	0.0	1.0080
4846	opls_861	1	NGb	H1R	2	0.0	1.0080
4847	opls_862	1	NGb	H1S	2	0.0	1.0080
4848	opls_863	1	NGb	H1T	2	0.0	1.0080
4849	opls_864	1	NGb	H1U	2	0.0	1.0080
4850	opls_865	1	NGb	H1V	3	0.0	1.0080
4851	opls_866	1	NGb	H1W	3	0.0	1.0080
4852	opls_867	1	NGb	H1X	3	0.0	1.0080
4853	opls_868	1	NGb	H1Y	3	0.0	1.0080
4854	opls_869	1	NGb	H1Z	3	0.0	1.0080
4855	opls_new	1	NGb	DUM	1	0.0	1.0
4856	opls_871	1	NGb	H21	3	0.0	1.0080
4857	opls_872	1	NGb	H22	3	0.0	1.0080
4858	opls_873	1	NGb	H23	3	0.0	1.0080
4859	opls_874	1	NGb	H24	3	0.0	1.0080
4860	opls_875	1	NGb	H25	3	0.0	1.0080
4861	opls_876	1	NGb	H26	3	0.0	1.0080
4862	opls_877	1	NGb	H27	3	0.0	1.0080
4863	opls_878	1	NGb	H28	3	0.0	1.0080
4864	opls_879	1	NGb	H29	3	0.0	1.0080
4865	opls_880	1	NGb	H2A	3	0.0	1.0080
4866	opls_881	1	NGb	H2B	3	0.0	1.0080
4867	opls_882	1	NGb	H2C	3	0.0	1.0080
4868	opls_883	1	NGb	H2D	3	0.0	1.0080
4869	opls_884	1	NGb	H2E	3	0.0	1.0080
4870	opls_885	1	NGb	H2F	3	0.0	1.0080
4871	opls_886	1	NGb	H2G	3	0.0	1.0080
4872	opls_887	1	NGb	H2H	3	0.0	1.0080
4873	opls_888	1	NGb	H2I	3	0.0	1.0080
4874	opls_889	1	NGb	H2J	3	0.0	1.0080
4875	opls_890	1	NGb	H2K	3	0.0	1.0080
4876	opls_891	1	NGb	H2M	3	0.0	1.0080
4877	opls_892	1	NGb	H2N	3	0.0	1.0080
4878	opls_893	1	NGb	H2O	3	0.0	1.0080
4879	opls_894	1	NGb	H2P	3	0.0	1.0080
4880	opls_895	1	NGb	H2Q	3	0.0	1.0080
4881	opls_896	1	NGb	H2R	3	0.0	1.0080
4882	opls_897	1	NGb	H2S	3	0.0	1.0080
4883	opls_898	1	NGb	H2T	4	0.0	1.0080
4884	opls_899	1	NGb	H2U	4	0.0	1.0080
4885	opls_800	1	NGb	C00	1	0.0	12.0110
4886	opls_801	1	NGb	N01	1	0.0	14.0070
4887	opls_802	1	NGb	C02	1	0.0	12.0110
4888	opls_803	1	NGb	C03	1	0.0	12.0110
4889	opls_804	1	NGb	O04	1	0.0	15.9990
4890	opls_805	1	NGb	C05	1	0.0	12.0110
4891	opls_806	1	NGb	C06	1	0.0	12.0110
4892	opls_807	1	NGb	C07	1	0.0	12.0110
4893	opls_808	1	NGb	C08	1	0.0	12.0110
4894	opls_809	1	NGb	C09	1	0.0	12.0110
4895	opls_810	1	NGb	C0A	1	0.0	12.0110
4896	opls_811	1	NGb	C0B	1	0.0	12.0110
4897	opls_812	1	NGb	C0C	1	0.0	12.0110
4898	opls_new	1	NGb	DUM	1	0.0	1.0
4899	opls_814	1	NGb	C0E	1	0.0	12.0110
4900	opls_815	1	NGb	C0F	1	0.0	12.0110
4901	opls_816	1	NGb	C0G	1	0.0	12.0110
4902	opls_817	1	NGb	C0H	1	0.0	12.0110
4903	opls_818	1	NGb	C0I	1	0.0	12.0110
4904	opls_819	1	NGb	C0J	1	0.0	12.0110
4905	opls_820	1	NGb	C0K	1	0.0	12.0110
4906	opls_821	1	NGb	C0M	1	0.0	12.0110
4907	opls_822	1	NGb	C0N	1	0.0	12.0110
4908	opls_823	1	NGb	C0O	1	0.0	12.0110
4909	opls_824	1	NGb	C0P	1	0.0	12.0110
4910	opls_825	1	NGb	C0Q	1	0.0	12.0110
4911	opls_826	1	NGb	C0R	1	0.0	12.0110
4912	opls_827	1	NGb	C0S	1	0.0	12.0110
4913	opls_828	1	NGb	C0T	1	0.0	12.0110
4914	opls_829	1	NGb	C0U	1	0.0	12.0110
4915	opls_830	1	NGb	C0V	1	0.0	12.0110
4916	opls_831	1	NGb	C0W	1	0.0	12.0110
4917	opls_832	1	NGb	C0X	2	0.0	12.0110
4918	opls_833	1	NGb	N0Y	2	0.0	14.0070
4919	opls_834	1	NGb	C0Z	2	0.0	12.0110
4920	opls_835	1	NGb	C10	2	0.0	12.0110
4921	opls_836	1	NGb	C11	2	0.0	12.0110
4922	opls_837	1	NGb	N12	2	0.0	14.0070
4923	opls_838	1	NGb	C13	2	0.0	12.0110
4924	opls_839	1	NGb	N14	2	0.0	14.0070
4925	opls_840	1	NGb	O15	2	0.0	15.9990
4926	opls_841	1	NGb	C16	2	0.0	12.0110
4927	opls_842	1	NGb	C17	2	0.0	12.0110
4928	opls_843	1	NGb	C18	2	0.0	12.0110
4929	opls_844	1	NGb	C19	2	0.0	12.0110
4930	opls_845	1	NGb	C1A	2	0.0	12.0110
4931	opls_846	1	NGb	C1B	2	0.0	12.0110
4932	opls_847	1	NGb	C1C	2	0.0	12.0110
4933	opls_848	1	NGb	C1D	2	0.0	12.0110
4934	opls_849	1	NGb	F1E	2	0.0	18.9984
4935	opls_850	1	NGb	F1F	2	0.0	18.9984
4936	opls_851	1	NGb	F1G	2	0.0	18.9984
4937	opls_852	1	NGb	C1H	2	0.0	12.0110
4938	opls_853	1	NGb	C1I	2	0.0	12.0110
4939	opls_854	1	NGb	C1J	2	0.0	12.0110
4940	opls_855	1	NGb	C1K	2	0.0	12.0110
4941	opls_856	1	NGb	C1M	2	0.0	12.0110
4942	opls_857	1	NGb	C1N	2	0.0	12.0110
4943	opls_858	1	NGb	C1O	2	0.0	12.0110
4944	opls_859	1	NGb	H1P	2	0.0	1.0080
4945	opls_860	1	NGb	H1Q	2	0.0	1.0080
4946	opls_861	1	NGb	H1R	2	0.0	1.0080
4947	opls_862	1	NGb	H1S	2	0.0	1.0080
4948	opls_863	1	NGb	H1T	2	0.0	1.0080
4949	opls_864	1	NGb	H1U	2	0.0	1.0080
4950	opls_865	1	NGb	H1V	3	0.0	1.0080
4951	opls_866	1	NGb	H1W	3	0.0	1.0080
4952	opls_867	1	NGb	H1X	3	0.0	1.0080
4953	opls_868	1	NGb	H1Y	3	0.0	1.0080
4954	opls_869	1	NGb	H1Z	3	0.0	1.0080
4955	opls_new	1	NGb	DUM	1	0.0	1.0
4956	opls_871	1	NGb	H21	3	0.0	1.0080
4957	opls_872	1	NGb	H22	3	0.0	1.0080
4958	opls_873	1	NGb	H23	3	0.0	1.0080
4959	opls_874	1	NGb	H24	3	0.0	1.0080
4960	opls_875	1	NGb	H25	3	0.0	1.0080
4961	opls_876	1	NGb	H26	3	0.0	1.0080
4962	opls_877	1	NGb	H27	3	0.0	1.0080
4963	opls_878	1	NGb	H28	3	0.0	1.0080
4964	opls_879	1	NGb	H29	3	0.0	1.0080
4965	opls_880	1	NGb	H2A	3	0.0	1.0080
4966	opls_881	1	NGb	H2B	3	0.0	1.0080
4967	opls_882	1	NGb	H2C	3	0.0	1.0080
4968	opls_883	1	NGb	H2D	3	0.0	1.0080
4969	opls_884	1	NGb	H2E	3	0.0	1.0080
4970	opls_885	1	NGb	H2F	3	0.0	1.0080
4971	opls_886	1	NGb	H2G	3	0.0	1.0080
4972	opls_887	1	NGb	H2H	3	0.0	1.0080
4973	opls_888	1	NGb	H2I	3	0.0	1.0080
4974	opls_889	1	NGb	H2J	3	0.0	1.0080
4975	opls_890	1	NGb	H2K	3	0.0	1.0080
4976	opls_891	1	NGb	H2M	3	0.0	1.0080
4977	opls_892	1	NGb	H2N	3	0.0	1.0080
4978	opls_893	1	NGb	H2O	3	0.0	1.0080
4979	opls_894	1	NGb	H2P	3	0.0	1.0080
4980	opls_895	1	NGb	H2Q	3	0.0	1.0080
4981	opls_896	1	NGb	H2R	3	0.0	1.0080
4982	opls_897	1	NGb	H2S	3	0.0	1.0080
4983	opls_898	1	NGb	H2T	4	0.0	1.0080
4984	opls_899	1	NGb	H2U	4	0.0	1.0080
4985	opls_800	1	NGb	C00	1	0.0	12.0110
4986	opls_801	1	NGb	N01	1	0.0	14.0070
4987	opls_802	1	NGb	C02	1	0.0	12.0110
4988	opls_803	1	NGb	C03	1	0.0	12.0110
4989	opls_804	1	NGb	O04	1	0.0	15.9990
4990	opls_805	1	NGb	C05	1	0.0	12.0110
4991	opls_806	1	NGb	C06	1	0.0	12.0110
4992	opls_807	1	NGb	C07	1	0.0	12.0110
4993	opls_808	1	NGb	C08	1	0.0	12.0110
4994	opls_809	1	NGb	C09	1	0.0	12.0110
4995	opls_810	1	NGb	C0A	1	0.0	12.0110
4996	opls_811	1	NGb	C0B	1	0.0	12.0110
4997	opls_812	1	NGb	C0C	1	0.0	12.0110
4998	opls_new	1	NGb	DUM	1	0.0	1.0
4999	opls_814	1	NGb	C0E	1	0.0	12.0110
5000	opls_815	1	NGb	C0F	1	0.0	12.0110
5001	opls_816	1	NGb	C0G	1	0.0	12.0110
5002	opls_817	1	NGb	C0H	1	0.0	12.0110
5003	opls_818	1	NGb	C0I	1	0.0	12.0110
5004	opls_819	1	NGb	C0J	1	0.0	12.0110
5005	opls_820	1	NGb	C0K	1	0.0	12.0110
5006	opls_821	1	NGb	C0M	1	0.0	12.0110
5007	opls_822	1	NGb	C0N	1	0.0	12.0110
5008	opls_823	1	NGb	C0O	1	0.0	12.0110
5009	opls_824	1	NGb	C0P	1	0.0	12.0110
5010	opls_825	1	NGb	C0Q	1	0.0	12.0110
5011	opls_826	1	NGb	C0R	1	0.0	12.0110
5012	opls_827	1	NGb	C0S	1	0.0	12.0110
5013	opls_828	1	NGb	C0T	1	0.0	12.0110
5014	opls_829	1	NGb	C0U	1	0.0	12.0110
5015	opls_830	1	NGb	C0V	1	0.0	12.0110
5016	opls_831	1	NGb	C0W	1	0.0	12.0110
5017	opls_832	1	NGb	C0X	2	0.0	12.0110
5018	opls_833	1	NGb	N0Y	2	0.0	14.0070
5019	opls_834	1	NGb	C0Z	2	0.0	12.0110
5020	opls_835	1	NGb	C10	2	0.0	12.0110
5021	opls_836	1	NGb	C11	2	0.0	12.0110
5022	opls_837	1	NGb	N12	2	0.0	14.0070
5023	opls_838	1	NGb	C13	2	0.0	12.0110
5024	opls_839	1	NGb	N14	2	0.0	14.0070
5025	opls_840	1	NGb	O15	2	0.0	15.9990
5026	opls_841	1	NGb	C16	2	0.0	12.0110
5027	opls_842	1	NGb	C17	2	0.0	12.0110
5028	opls_843	1	NGb	C18	2	0.0	12.0110
5029	opls_844	1	NGb	C19	2	0.0	12.0110
5030	opls_845	1	NGb	C1A	2	0.0	12.0110
5031	opls_846	1	NGb	C1B	2	0.0	12.0110
5032	opls_847	1	NGb	C1C	2	0.0	12.0110
5033	opls_848	1	NGb	C1D	2	0.0	12.0110
5034	opls_849	1	NGb	F1E	2	0.0	18.9984
5035	opls_850	1	NGb	F1F	2	0.0	18.9984
5036	opls_851	1	NGb	F1G	2	0.0	18.9984
5037	opls_852	1	NGb	C1H	2	0.0	12.0110
5038	opls_853	1	NGb	C1I	2	0.0	12.0110
5039	opls_854	1	NGb	C1J	2	0.0	12.0110
5040	opls_855	1	NGb	C1K	2	0.0	12.0110
5041	opls_856	1	NGb	C1M	2	0.0	12.0110
5042	opls_857	1	NGb	C1N	2	0.0	12.0110
5043	opls_858	1	NGb	C1O	2	0.0	12.0110
5044	opls_859	1	NGb	H1P	2	0.0	1.0080
5045	opls_860	1	NGb	H1Q	2	0.0	1.0080
5046	opls_861	1	NGb	H1R	2	0.0	1.0080
5047	opls_862	1	NGb	H1S	2	0.0	1.0080
5048	opls_863	1	NGb	H1T	2	0.0	1.0080
5049	opls_864	1	NGb	H1U	2	0.0	1.0080
5050	opls_865	1	NGb	H1V	3	0.0	1.0080
5051	opls_866	1	NGb	H1W	3	0.0	1.0080
5052	opls_867	1	NGb	H1X	3	0.0	1.0080
5053	opls_868	1	NGb	H1Y	3	0.0	1.0080
5054	opls_869	1	NGb	H1Z	3	0.0	1.0080
5055	opls_new	1	NGb	DUM	1	0.0	1.0
5056	opls_871	1	NGb	H21	3	0.0	1.0080
5057	opls_872	1	NGb	H22	3	0.0	1.0080
5058	opls_873	1	NGb	H23	3	0.0	1.0080
5059	opls_874	1	NGb	H24	3	0.0	1.0080
5060	opls_875	1	NGb	H25	3	0.0	1.0080
5061	opls_876	1	NGb	H26	3	0.0	1.0080
5062	opls_877	1	NGb	H27	3	0.0	1.0080
5063	opls_878	1	NGb	H28	3	0.0	1.0080
5064	opls_879	1	NGb	H29	3	0.0	1.0080
5065	opls_880	1	NGb	H2A	3	0.0	1.0080
5066	opls_881	1	NGb	H2B	3	0.0	1.0080
5067	opls_882	1	NGb	H2C	3	0.0	1.0080
5068	opls_883	1	NGb	H2D	3	0.0	1.0080
5069	opls_884	1	NGb	H2E	3	0.0	1.0080
5070	opls_885	1	NGb	H2F	3	0.0	1.0080
5071	opls_886	1	NGb	H2G	3	0.0	1.0080
5072	opls_887	1	NGb	H2H	3	0.0	1.0080
5073	opls_888	1	NGb	H2I	3	0.0	1.0080
5074	opls_889	1	NGb	H2J	3	0.0	1.0080
5075	opls_890	1	NGb	H2K	3	0.0	1.0080
5076	opls_891	1	NGb	H2M	3	0.0	1.0080
5077	opls_892	1	NGb	H2N	3	0.0	1.0080
5078	opls_893	1	NGb	H2O	3	0.0	1.0080
5079	opls_894	1	NGb	H2P	3	0.0	1.0080
5080	opls_895	1	NGb	H2Q	3	0.0	1.0080
5081	opls_896	1	NGb	H2R	3	0.0	1.0080
5082	opls_897	1	NGb	H2S	3	0.0	1.0080
5083	opls_898	1	NGb	H2T	4	0.0	1.0080
5084	opls_899	1	NGb	H2U	4	0.0	1.0080
5085	opls_800	1	NGb	C00	1	0.0	12.0110
5086	opls_801	1	NGb	N01	1	0.0	14.0070
5087	opls_802	1	NGb	C02	1	0.0	12.0110
5088	opls_803	1	NGb	C03	1	0.0	12.0110
5089	opls_804	1	NGb	O04	1	0.0	15.9990
5090	opls_805	1	NGb	C05	1	0.0	12.0110
5091	opls_806	1	NGb	C06	1	0.0	12.0110
5092	opls_807	1	NGb	C07	1	0.0	12.0110
5093	opls_808	1	NGb	C08	1	0.0	12.0110
5094	opls_809	1	NGb	C09	1	0.0	12.0110
5095	opls_810	1	NGb	C0A	1	0.0	12.0110
5096	opls_811	1	NGb	C0B	1	0.0	12.0110
5097	opls_812	1	NGb	C0C	1	0.0	12.0110
5098	opls_new	1	NGb	DUM	1	0.0	1.0
5099	opls_814	1	NGb	C0E	1	0.0	12.0110
5100	opls_815	1	NGb	C0F	1	0.0	12.0110
5101	opls_816	1	NGb	C0G	1	0.0	12.0110
5102	opls_817	1	NGb	C0H	1	0.0	12.0110
5103	opls_818	1	NGb	C0I	1	0.0	12.0110
5104	opls_819	1	NGb	C0J	1	0.0	12.0110
5105	opls_820	1	NGb	C0K	1	0.0	12.0110
5106	opls_821	1	NGb	C0M	1	0.0	12.0110
5107	opls_822	1	NGb	C0N	1	0.0	12.0110
5108	opls_823	1	NGb	C0O	1	0.0	12.0110
5109	opls_824	1	NGb	C0P	1	0.0	12.0110
5110	opls_825	1	NGb	C0Q	1	0.0	12.0110
5111	opls_826	1	NGb	C0R	1	0.0	12.0110
5112	opls_827	1	NGb	C0S	1	0.0	12.0110
5113	opls_828	1	NGb	C0T	1	0.0	12.0110
5114	opls_829	1	NGb	C0U	1	0.0	12.0110
5115	opls_830	1	NGb	C0V	1	0.0	12.0110
5116	opls_831	1	NGb	C0W	1	0.0	12.0110
5117	opls_832	1	NGb	C0X	2	0.0	12.0110
5118	opls_833	1	NGb	N0Y	2	0.0	14.0070
5119	opls_834	1	NGb	C0Z	2	0.0	12.0110
5120	opls_835	1	NGb	C10	2	0.0	12.0110
5121	opls_836	1	NGb	C11	2	0.0	12.0110
5122	opls_837	1	NGb	N12	2	0.0	14.0070
5123	opls_838	1	NGb	C13	2	0.0	12.0110
5124	opls_839	1	NGb	N14	2	0.0	14.0070
5125	opls_840	1	NGb	O15	2	0.0	15.9990
5126	opls_841	1	NGb	C16	2	0.0	12.0110
5127	opls_842	1	NGb	C17	2	0.0	12.0110
5128	opls_843	1	NGb	C18	2	0.0	12.0110
5129	opls_844	1	NGb	C19	2	0.0	12.0110
5130	opls_845	1	NGb	C1A	2	0.0	12.0110
5131	opls_846	1	NGb	C1B	2	0.0	12.0110
5132	opls_847	1	NGb	C1C	2	0.0	12.0110
5133	opls_848	1	NGb	C1D	2	0.0	12.0110
5134	opls_849	1	NGb	F1E	2	0.0	18.9984
5135	opls_850	1	NGb	F1F	2	0.0	18.9984
5136	opls_851	1	NGb	F1G	2	0.0	18.9984
5137	opls_852	1	NGb	C1H	2	0.0	12.0110
5138	opls_853	1	NGb	C1I	2	0.0	12.0110
5139	opls_854	1	NGb	C1J	2	0.0	12.0110
5140	opls_855	1	NGb	C1K	2	0.0	12.0110
5141	opls_856	1	NGb	C1M	2	0.0	12.0110
5142	opls_857	1	NGb	C1N	2	0.0	12.0110
5143	opls_858	1	NGb	C1O	2	0.0	12.0110
5144	opls_859	1	NGb	H1P	2	0.0	1.0080
5145	opls_860	1	NGb	H1Q	2	0.0	1.0080
5146	opls_861	1	NGb	H1R	2	0.0	1.0080
5147	opls_862	1	NGb	H1S	2	0.0	1.0080
5148	opls_863	1	NGb	H1T	2	0.0	1.0080
5149	opls_864	1	NGb	H1U	2	0.0	1.0080
5150	opls_865	1	NGb	H1V	3	0.0	1.0080
5151	opls_866	1	NGb	H1W	3	0.0	1.0080
5152	opls_867	1	NGb	H1X	3	0.0	1.0080
5153	opls_868	1	NGb	H1Y	3	0.0	1.0080
5154	opls_869	1	NGb	H1Z	3	0.0	1.0080
5155	opls_new	1	NGb	DUM	1	0.0	1.0
5156	opls_871	1	NGb	H21	3	0.0	1.0080
5157	opls_872	1	NGb	H22	3	0.0	1.0080
5158	opls_873	1	NGb	H23	3	0.0	1.0080
5159	opls_874	1	NGb	H24	3	0.0	1.0080
5160	opls_875	1	NGb	H25	3	0.0	1.0080
5161	opls_876	1	NGb	H26	3	0.0	1.0080
5162	opls_877	1	NGb	H27	3	0.0	1.0080
5163	opls_878	1	NGb	H28	3	0.0	1.0080
5164	opls_879	1	NGb	H29	3	0.0	1.0080
5165	opls_880	1	NGb	H2A	3	0.0	1.0080
5166	opls_881	1	NGb	H2B	3	0.0	1.0080
5167	opls_882	1	NGb	H2C	3	0.0	1.0080
5168	opls_883	1	NGb	H2D	3	0.0	1.0080
5169	opls_884	1	NGb	H2E	3	0.0	1.0080
5170	opls_885	1	NGb	H2F	3	0.0	1.0080
5171	opls_886	1	NGb	H2G	3	0.0	1.0080
5172	opls_887	1	NGb	H2H	3	0.0	1.0080
5173	opls_888	1	NGb	H2I	3	0.0	1.0080
5174	opls_889	1	NGb	H2J	3	0.0	1.0080
5175	opls_890	1	NGb	H2K	3	0.0	1.0080
5176	opls_891	1	NGb	H2M	3	0.0	1.0080
5177	opls_892	1	NGb	H2N	3	0.0	1.0080
5178	opls_893	1	NGb	H2O	3	0.0	1.0080
5179	opls_894	1	NGb	H2P	3	0.0	1.0080
5180	opls_895	1	NGb	H2Q	3	0.0	1.0080
5181	opls_896	1	NGb	H2R	3	0.0	1.0080
5182	opls_897	1	NGb	H2S	3	0.0	1.0080
5183	opls_898	1	NGb	H2T	4	0.0	1.0080
5184	opls_899	1	NGb	H2U	4	0.0	1.0080
5185	opls_800	1	NGb	C00	1	0.0	12.0110
5186	opls_801	1	NGb	N01	1	0.0	14.0070
5187	opls_802	1	NGb	C02	1	0.0	12.0110
5188	opls_803	1	NGb	C03	1	0.0	12.0110
5189	opls_804	1	NGb	O04	1	0.0	15.9990
5190	opls_805	1	NGb	C05	1	0.0	12.0110
5191	opls_806	1	NGb	C06	1	0.0	12.0110
5192	opls_807	1	NGb	C07	1	0.0	12.0110
5193	opls_808	1	NGb	C08	1	0.0	12.0110
5194	opls_809	1	NGb	C09	1	0.0	12.0110
5195	opls_810	1	NGb	C0A	1	0.0	12.0110
5196	opls_811	1	NGb	C0B	1	0.0	12.0110
5197	opls_812	1	NGb	C0C	1	0.0	12.0110
5198	opls_new	1	NGb	DUM	1	0.0	1.0
5199	opls_814	1	NGb	C0E	1	0.0	12.0110
5200	opls_815	1	NGb	C0F	1	0.0	12.0110
5201	opls_816	1	NGb	C0G	1	0.0	12.0110
5202	opls_817	1	NGb	C0H	1	0.0	12.0110
5203	opls_818	1	NGb	C0I	1	0.0	12.0110
5204	opls_819	1	NGb	C0J	1	0.0	12.0110
5205	opls_820	1	NGb	C0K	1	0.0	12.0110
5206	opls_821	1	NGb	C0M	1	0.0	12.0110
5207	opls_822	1	NGb	C0N	1	0.0	12.0110
5208	opls_823	1	NGb	C0O	1	0.0	12.0110
5209	opls_824	1	NGb	C0P	1	0.0	12.0110
5210	opls_825	1	NGb	C0Q	1	0.0	12.0110
5211	opls_826	1	NGb	C0R	1	0.0	12.0110
5212	opls_827	1	NGb	C0S	1	0.0	12.0110
5213	opls_828	1	NGb	C0T	1	0.0	12.0110
5214	opls_829	1	NGb	C0U	1	0.0	12.0110
5215	opls_830	1	NGb	C0V	1	0.0	12.0110
5216	opls_831	1	NGb	C0W	1	0.0	12.0110
5217	opls_832	1	NGb	C0X	2	0.0	12.0110
5218	opls_833	1	NGb	N0Y	2	0.0	14.0070
5219	opls_834	1	NGb	C0Z	2	0.0	12.0110
5220	opls_835	1	NGb	C10	2	0.0	12.0110
5221	opls_836	1	NGb	C11	2	0.0	12.0110
5222	opls_837	1	NGb	N12	2	0.0	14.0070
5223	opls_838	1	NGb	C13	2	0.0	12.0110
5224	opls_839	1	NGb	N14	2	0.0	14.0070
5225	opls_840	1	NGb	O15	2	0.0	15.9990
5226	opls_841	1	NGb	C16	2	0.0	12.0110
5227	opls_842	1	NGb	C17	2	0.0	12.0110
5228	opls_843	1	NGb	C18	2	0.0	12.0110
5229	opls_844	1	NGb	C19	2	0.0	12.0110
5230	opls_845	1	NGb	C1A	2	0.0	12.0110
5231	opls_846	1	NGb	C1B	2	0.0	12.0110
5232	opls_847	1	NGb	C1C	2	0.0	12.0110
5233	opls_848	1	NGb	C1D	2	0.0	12.0110
5234	opls_849	1	NGb	F1E	2	0.0	18.9984
5235	opls_850	1	NGb	F1F	2	0.0	18.9984
5236	opls_851	1	NGb	F1G	2	0.0	18.9984
5237	opls_852	1	NGb	C1H	2	0.0	12.0110
5238	opls_853	1	NGb	C1I	2	0.0	12.0110
5239	opls_854	1	NGb	C1J	2	0.0	12.0110
5240	opls_855	1	NGb	C1K	2	0.0	12.0110
5241	opls_856	1	NGb	C1M	2	0.0	12.0110
5242	opls_857	1	NGb	C1N	2	0.0	12.0110
5243	opls_858	1	NGb	C1O	2	0.0	12.0110
5244	opls_859	1	NGb	H1P	2	0.0	1.0080
5245	opls_860	1	NGb	H1Q	2	0.0	1.0080
5246	opls_861	1	NGb	H1R	2	0.0	1.0080
5247	opls_862	1	NGb	H1S	2	0.0	1.0080
5248	opls_863	1	NGb	H1T	2	0.0	1.0080
5249	opls_864	1	NGb	H1U	2	0.0	1.0080
5250	opls_865	1	NGb	H1V	3	0.0	1.0080
5251	opls_866	1	NGb	H1W	3	0.0	1.0080
5252	opls_867	1	NGb	H1X	3	0.0	1.0080
5253	opls_868	1	NGb	H1Y	3	0.0	1.0080
5254	opls_869	1	NGb	H1Z	3	0.0	1.0080
5255	opls_new	1	NGb	DUM	1	0.0	1.0
5256	opls_871	1	NGb	H21	3	0.0	1.0080
5257	opls_872	1	NGb	H22	3	0.0	1.0080
5258	opls_873	1	NGb	H23	3	0.0	1.0080
5259	opls_874	1	NGb	H24	3	0.0	1.0080
5260	opls_875	1	NGb	H25	3	0.0	1.0080
5261	opls_876	1	NGb	H26	3	0.0	1.0080
5262	opls_877	1	NGb	H27	3	0.0	1.0080
5263	opls_878	1	NGb	H28	3	0.0	1.0080
5264	opls_879	1	NGb	H29	3	0.0	1.0080
5265	opls_880	1	NGb	H2A	3	0.0	1.0080
5266	opls_881	1	NGb	H2B	3	0.0	1.0080
5267	opls_882	1	NGb	H2C	3	0.0	1.0080
5268	opls_883	1	NGb	H2D	3	0.0	1.0080
5269	opls_884	1	NGb	H2E	3	0.0	1.0080
5270	opls_885	1	NGb	H2F	3	0.0	1.0080
5271	opls_886	1	NGb	H2G	3	0.0	1.0080
5272	opls_887	1	NGb	H2H	3	0.0	1.0080
5273	opls_888	1	NGb	H2I	3	0.0	1.0080
5274	opls_889	1	NGb	H2J	3	0.0	1.0080
5275	opls_890	1	NGb	H2K	3	0.0	1.0080
5276	opls_891	1	NGb	H2M	3	0.0	1.0080
5277	opls_892	1	NGb	H2N	3	0.0	1.0080
5278	opls_893	1	NGb	H2O	3	0.0	1.0080
5279	opls_894	1	NGb	H2P	3	0.0	1.0080
5280	opls_895	1	NGb	H2Q	3	0.0	1.0080
5281	opls_896	1	NGb	H2R	3	0.0	1.0080
5282	opls_897	1	NGb	H2S	3	0.0	1.0080
5283	opls_898	1	NGb	H2T	4	0.0	1.0080
5284	opls_899	1	NGb	H2U	4	0.0	1.0080
5285	opls_800	1	NGb	C00	1	0.0	12.0110
5286	opls_801	1	NGb	N01	1	0.0	14.0070
5287	opls_802	1	NGb	C02	1	0.0	12.0110
5288	opls_803	1	NGb	C03	1	0.0	12.0110
5289	opls_804	1	NGb	O04	1	0.0	15.9990
5290	opls_805	1	NGb	C05	1	0.0	12.0110
5291	opls_806	1	NGb	C06	1	0.0	12.0110
5292	opls_807	1	NGb	C07	1	0.0	12.0110
5293	opls_808	1	NGb	C08	1	0.0	12.0110
5294	opls_809	1	NGb	C09	1	0.0	12.0110
5295	opls_810	1	NGb	C0A	1	0.0	12.0110
5296	opls_811	1	NGb	C0B	1	0.0	12.0110
5297	opls_812	1	NGb	C0C	1	0.0	12.0110
5298	opls_new	1	NGb	DUM	1	0.0	1.0
5299	opls_814	1	NGb	C0E	1	0.0	12.0110
5300	opls_815	1	NGb	C0F	1	0.0	12.0110
5301	opls_816	1	NGb	C0G	1	0.0	12.0110
5302	opls_817	1	NGb	C0H	1	0.0	12.0110
5303	opls_818	1	NGb	C0I	1	0.0	12.0110
5304	opls_819	1	NGb	C0J	1	0.0	12.0110
5305	opls_820	1	NGb	C0K	1	0.0	12.0110
5306	opls_821	1	NGb	C0M	1	0.0	12.0110
5307	opls_822	1	NGb	C0N	1	0.0	12.0110
5308	opls_823	1	NGb	C0O	1	0.0	12.0110
5309	opls_824	1	NGb	C0P	1	0.0	12.0110
5310	opls_825	1	NGb	C0Q	1	0.0	12.0110
5311	opls_826	1	NGb	C0R	1	0.0	12.0110
5312	opls_827	1	NGb	C0S	1	0.0	12.0110
5313	opls_828	1	NGb	C0T	1	0.0	12.0110
5314	opls_829	1	NGb	C0U	1	0.0	12.0110
5315	opls_830	1	NGb	C0V	1	0.0	12.0110
5316	opls_831	1	NGb	C0W	1	0.0	12.0110
5317	opls_832	1	NGb	C0X	2	0.0	12.0110
5318	opls_833	1	NGb	N0Y	2	0.0	14.0070
5319	opls_834	1	NGb	C0Z	2	0.0	12.0110
5320	opls_835	1	NGb	C10	2	0.0	12.0110
5321	opls_836	1	NGb	C11	2	0.0	12.0110
5322	opls_837	1	NGb	N12	2	0.0	14.0070
5323	opls_838	1	NGb	C13	2	0.0	12.0110
5324	opls_839	1	NGb	N14	2	0.0	14.0070
5325	opls_840	1	NGb	O15	2	0.0	15.9990
5326	opls_841	1	NGb	C16	2	0.0	12.0110
5327	opls_842	1	NGb	C17	2	0.0	12.0110
5328	opls_843	1	NGb	C18	2	0.0	12.0110
5329	opls_844	1	NGb	C19	2	0.0	12.0110
5330	opls_845	1	NGb	C1A	2	0.0	12.0110
5331	opls_846	1	NGb	C1B	2	0.0	12.0110
5332	opls_847	1	NGb	C1C	2	0.0	12.0110
5333	opls_848	1	NGb	C1D	2	0.0	12.0110
5334	opls_849	1	NGb	F1E	2	0.0	18.9984
5335	opls_850	1	NGb	F1F	2	0.0	18.9984
5336	opls_851	1	NGb	F1G	2	0.0	18.9984
5337	opls_852	1	NGb	C1H	2	0.0	12.0110
5338	opls_853	1	NGb	C1I	2	0.0	12.0110
5339	opls_854	1	NGb	C1J	2	0.0	12.0110
5340	opls_855	1	NGb	C1K	2	0.0	12.0110
5341	opls_856	1	NGb	C1M	2	0.0	12.0110
5342	opls_857	1	NGb	C1N	2	0.0	12.0110
5343	opls_858	1	NGb	C1O	2	0.0	12.0110
5344	opls_859	1	NGb	H1P	2	0.0	1.0080
5345	opls_860	1	NGb	H1Q	2	0.0	1.0080
5346	opls_861	1	NGb	H1R	2	0.0	1.0080
5347	opls_862	1	NGb	H1S	2	0.0	1.0080
5348	opls_863	1	NGb	H1T	2	0.0	1.0080
5349	opls_864	1	NGb	H1U	2	0.0	1.0080
5350	opls_865	1	NGb	H1V	3	0.0	1.0080
5351	opls_866	1	NGb	H1W	3	0.0	1.0080
5352	opls_867	1	NGb	H1X	3	0.0	1.0080
5353	opls_868	1	NGb	H1Y	3	0.0	1.0080
5354	opls_869	1	NGb	H1Z	3	0.0	1.0080
5355	opls_new	1	NGb	DUM	1	0.0	1.0
5356	opls_871	1	NGb	H21	3	0.0	1.0080
5357	opls_872	1	NGb	H22	3	0.0	1.0080
5358	opls_873	1	NGb	H23	3	0.0	1.0080
5359	opls_874	1	NGb	H24	3	0.0	1.0080
5360	opls_875	1	NGb	H25	3	0.0	1.0080
5361	opls_876	1	NGb	H26	3	0.0	1.0080
5362	opls_877	1	NGb	H27	3	0.0	1.0080
5363	opls_878	1	NGb	H28	3	0.0	1.0080
5364	opls_879	1	NGb	H29	3	0.0	1.0080
5365	opls_880	1	NGb	H2A	3	0.0	1.0080
5366	opls_881	1	NGb	H2B	3	0.0	1.0080
5367	opls_882	1	NGb	H2C	3	0.0	1.0080
5368	opls_883	1	NGb	H2D	3	0.0	1.0080
5369	opls_884	1	NGb	H2E	3	0.0	1.0080
5370	opls_885	1	NGb	H2F	3	0.0	1.0080
5371	opls_886	1	NGb	H2G	3	0.0	1.0080
5372	opls_887	1	NGb	H2H	3	0.0	1.0080
5373	opls_888	1	NGb	H2I	3	0.0	1.0080
5374	opls_889	1	NGb	H2J	3	0.0	1.0080
5375	opls_890	1	NGb	H2K	3	0.0	1.0080
5376	opls_891	1	NGb	H2M	3	0.0	1.0080
5377	opls_892	1	NGb	H2N	3	0.0	1.0080
5378	opls_893	1	NGb	H2O	3	0.0	1.0080
5379	opls_894	1	NGb	H2P	3	0.0	1.0080
5380	opls_895	1	NGb	H2Q	3	0.0	1.0080
5381	opls_896	1	NGb	H2R	3	0.0	1.0080
5382	opls_897	1	NGb	H2S	3	0.0	1.0080
5383	opls_898	1	NGb	H2T	4	0.0	1.0080
5384	opls_899	1	NGb	H2U	4	0.0	1.0080
5385	opls_800	1	NGb	C00	1	0.0	12.0110
5386	opls_801	1	NGb	N01	1	0.0	14.0070
5387	opls_802	1	NGb	C02	1	0.0	12.0110
5388	opls_803	1	NGb	C03	1	0.0	12.0110
5389	opls_804	1	NGb	O04	1	0.0	15.9990
5390	opls_805	1	NGb	C05	1	0.0	12.0110
5391	opls_806	1	NGb	C06	1	0.0	12.0110
5392	opls_807	1	NGb	C07	1	0.0	12.0110
5393	opls_808	1	NGb	C08	1	0.0	12.0110
5394	opls_809	1	NGb	C09	1	0.0	12.0110
5395	opls_810	1	NGb	C0A	1	0.0	12.0110
5396	opls_811	1	NGb	C0B	1	0.0	12.0110
5397	opls_812	1	NGb	C0C	1	0.0	12.0110
5398	opls_new	1	NGb	DUM	1	0.0	1.0
5399	opls_814	1	NGb	C0E	1	0.0	12.0110
5400	opls_815	1	NGb	C0F	1	0.0	12.0110
5401	opls_816	1	NGb	C0G	1	0.0	12.0110
5402	opls_817	1	NGb	C0H	1	0.0	12.0110
5403	opls_818	1	NGb	C0I	1	0.0	12.0110
5404	opls_819	1	NGb	C0J	1	0.0	12.0110
5405	opls_820	1	NGb	C0K	1	0.0	12.0110
5406	opls_821	1	NGb	C0M	1	0.0	12.0110
5407	opls_822	1	NGb	C0N	1	0.0	12.0110
5408	opls_823	1	NGb	C0O	1	0.0	12.0110
5409	opls_824	1	NGb	C0P	1	0.0	12.0110
5410	opls_825	1	NGb	C0Q	1	0.0	12.0110
5411	opls_826	1	NGb	C0R	1	0.0	12.0110
5412	opls_827	1	NGb	C0S	1	0.0	12.0110
5413	opls_828	1	NGb	C0T	1	0.0	12.0110
5414	opls_829	1	NGb	C0U	1	0.0	12.0110
5415	opls_830	1	NGb	C0V	1	0.0	12.0110
5416	opls_831	1	NGb	C0W	1	0.0	12.0110
5417	opls_832	1	NGb	C0X	2	0.0	12.0110
5418	opls_833	1	NGb	N0Y	2	0.0	14.0070
5419	opls_834	1	NGb	C0Z	2	0.0	12.0110
5420	opls_835	1	NGb	C10	2	0.0	12.0110
5421	opls_836	1	NGb	C11	2	0.0	12.0110
5422	opls_837	1	NGb	N12	2	0.0	14.0070
5423	opls_838	1	NGb	C13	2	0.0	12.0110
5424	opls_839	1	NGb	N14	2	0.0	14.0070
5425	opls_840	1	NGb	O15	2	0.0	15.9990
5426	opls_841	1	NGb	C16	2	0.0	12.0110
5427	opls_842	1	NGb	C17	2	0.0	12.0110
5428	opls_843	1	NGb	C18	2	0.0	12.0110
5429	opls_844	1	NGb	C19	2	0.0	12.0110
5430	opls_845	1	NGb	C1A	2	0.0	12.0110
5431	opls_846	1	NGb	C1B	2	0.0	12.0110
5432	opls_847	1	NGb	C1C	2	0.0	12.0110
5433	opls_848	1	NGb	C1D	2	0.0	12.0110
5434	opls_849	1	NGb	F1E	2	0.0	18.9984
5435	opls_850	1	NGb	F1F	2	0.0	18.9984
5436	opls_851	1	NGb	F1G	2	0.0	18.9984
5437	opls_852	1	NGb	C1H	2	0.0	12.0110
5438	opls_853	1	NGb	C1I	2	0.0	12.0110
5439	opls_854	1	NGb	C1J	2	0.0	12.0110
5440	opls_855	1	NGb	C1K	2	0.0	12.0110
5441	opls_856	1	NGb	C1M	2	0.0	12.0110
5442	opls_857	1	NGb	C1N	2	0.0	12.0110
5443	opls_858	1	NGb	C1O	2	0.0	12.0110
5444	opls_859	1	NGb	H1P	2	0.0	1.0080
5445	opls_860	1	NGb	H1Q	2	0.0	1.0080
5446	opls_861	1	NGb	H1R	2	0.0	1.0080
5447	opls_862	1	NGb	H1S	2	0.0	1.0080
5448	opls_863	1	NGb	H1T	2	0.0	1.0080
5449	opls_864	1	NGb	H1U	2	0.0	1.0080
5450	opls_865	1	NGb	H1V	3	0.0	1.0080
5451	opls_866	1	NGb	H1W	3	0.0	1.0080
5452	opls_867	1	NGb	H1X	3	0.0	1.0080
5453	opls_868	1	NGb	H1Y	3	0.0	1.0080
5454	opls_869	1	NGb	H1Z	3	0.0	1.0080
5455	opls_new	1	NGb	DUM	1	0.0	1.0
5456	opls_871	1	NGb	H21	3	0.0	1.0080
5457	opls_872	1	NGb	H22	3	0.0	1.0080
5458	opls_873	1	NGb	H23	3	0.0	1.0080
5459	opls_874	1	NGb	H24	3	0.0	1.0080
5460	opls_875	1	NGb	H25	3	0.0	1.0080
5461	opls_876	1	NGb	H26	3	0.0	1.0080
5462	opls_877	1	NGb	H27	3	0.0	1.0080
5463	opls_878	1	NGb	H28	3	0.0	1.0080
5464	opls_879	1	NGb	H29	3	0.0	1.0080
5465	opls_880	1	NGb	H2A	3	0.0	1.0080
5466	opls_881	1	NGb	H2B	3	0.0	1.0080
5467	opls_882	1	NGb	H2C	3	0.0	1.0080
5468	opls_883	1	NGb	H2D	3	0.0	1.0080
5469	opls_884	1	NGb	H2E	3	0.0	1.0080
5470	opls_885	1	NGb	H2F	3	0.0	1.0080
5471	opls_886	1	NGb	H2G	3	0.0	1.0080
5472	opls_887	1	NGb	H2H	3	0.0	1.0080
5473	opls_888	1	NGb	H2I	3	0.0	1.0080
5474	opls_889	1	NGb	H2J	3	0.0	1.0080
5475	opls_890	1	NGb	H2K	3	0.0	1.0080
5476	opls_891	1	NGb	H2M	3	0.0	1.0080
5477	opls_892	1	NGb	H2N	3	0.0	1.0080
5478	opls_893	1	NGb	H2O	3	0.0	1.0080
5479	opls_894	1	NGb	H2P	3	0.0	1.0080
5480	opls_895	1	NGb	H2Q	3	0.0	1.0080
5481	opls_896	1	NGb	H2R	3	0.0	1.0080
5482	opls_897	1	NGb	H2S	3	0.0	1.0080
5483	opls_898	1	NGb	H2T	4	0.0	1.0080
5484	opls_899	1	NGb	H2U	4	0.0	1.0080
5485	opls_800	1	NGb	C00	1	0.0	12.0110
5486	opls_801	1	NGb	N01	1	0.0	14.0070
5487	opls_802	1	NGb	C02	1	0.0	12.0110
5488	opls_803	1	NGb	C03	1	0.0	12.0110
5489	opls_804	1	NGb	O04	1	0.0	15.9990
5490	opls_805	1	NGb	C05	1	0.0	12.0110
5491	opls_806	1	NGb	C06	1	0.0	12.0110
5492	opls_807	1	NGb	C07	1	0.0	12.0110
5493	opls_808	1	NGb	C08	1	0.0	12.0110
5494	opls_809	1	NGb	C09	1	0.0	12.0110
5495	opls_810	1	NGb	C0A	1	0.0	12.0110
5496	opls_811	1	NGb	C0B	1	0.0	12.0110
5497	opls_812	1	NGb	C0C	1	0.0	12.0110
5498	opls_new	1	NGb	DUM	1	0.0	1.0
5499	opls_814	1	NGb	C0E	1	0.0	12.0110
5500	opls_815	1	NGb	C0F	1	0.0	12.0110
5501	opls_816	1	NGb	C0G	1	0.0	12.0110
5502	opls_817	1	NGb	C0H	1	0.0	12.0110
5503	opls_818	1	NGb	C0I	1	0.0	12.0110
5504	opls_819	1	NGb	C0J	1	0.0	12.0110
5505	opls_820	1	NGb	C0K	1	0.0	12.0110
5506	opls_821	1	NGb	C0M	1	0.0	12.0110
5507	opls_822	1	NGb	C0N	1	0.0	12.0110
5508	opls_823	1	NGb	C0O	1	0.0	12.0110
5509	opls_824	1	NGb	C0P	1	0.0	12.0110
5510	opls_825	1	NGb	C0Q	1	0.0	12.0110
5511	opls_826	1	NGb	C0R	1	0.0	12.0110
5512	opls_827	1	NGb	C0S	1	0.0	12.0110
5513	opls_828	1	NGb	C0T	1	0.0	12.0110
5514	opls_829	1	NGb	C0U	1	0.0	12.0110
5515	opls_830	1	NGb	C0V	1	0.0	12.0110
5516	opls_831	1	NGb	C0W	1	0.0	12.0110
5517	opls_832	1	NGb	C0X	2	0.0	12.0110
5518	opls_833	1	NGb	N0Y	2	0.0	14.0070
5519	opls_834	1	NGb	C0Z	2	0.0	12.0110
5520	opls_835	1	NGb	C10	2	0.0	12.0110
5521	opls_836	1	NGb	C11	2	0.0	12.0110
5522	opls_837	1	NGb	N12	2	0.0	14.0070
5523	opls_838	1	NGb	C13	2	0.0	12.0110
5524	opls_839	1	NGb	N14	2	0.0	14.0070
5525	opls_840	1	NGb	O15	2	0.0	15.9990
5526	opls_841	1	NGb	C16	2	0.0	12.0110
5527	opls_842	1	NGb	C17	2	0.0	12.0110
5528	opls_843	1	NGb	C18	2	0.0	12.0110
5529	opls_844	1	NGb	C19	2	0.0	12.0110
5530	opls_845	1	NGb	C1A	2	0.0	12.0110
5531	opls_846	1	NGb	C1B	2	0.0	12.0110
5532	opls_847	1	NGb	C1C	2	0.0	12.0110
5533	opls_848	1	NGb	C1D	2	0.0	12.0110
5534	opls_849	1	NGb	F1E	2	0.0	18.9984
5535	opls_850	1	NGb	F1F	2	0.0	18.9984
5536	opls_851	1	NGb	F1G	2	0.0	18.9984
5537	opls_852	1	NGb	C1H	2	0.0	12.0110
5538	opls_853	1	NGb	C1I	2	0.0	12.0110
5539	opls_854	1	NGb	C1J	2	0.0	12.0110
5540	opls_855	1	NGb	C1K	2	0.0	12.0110
5541	opls_856	1	NGb	C1M	2	0.0	12.0110
5542	opls_857	1	NGb	C1N	2	0.0	12.0110
5543	opls_858	1	NGb	C1O	2	0.0	12.0110
5544	opls_859	1	NGb	H1P	2	0.0	1.0080
5545	opls_860	1	NGb	H1Q	2	0.0	1.0080
5546	opls_861	1	NGb	H1R	2	0.0	1.0080
5547	opls_862	1	NGb	H1S	2	0.0	1.0080
5548	opls_863	1	NGb	H1T	2	0.0	1.0080
5549	opls_864	1	NGb	H1U	2	0.0	1.0080
5550	opls_865	1	NGb	H1V	3	0.0	1.0080
5551	opls_866	1	NGb	H1W	3	0.0	1.0080
5552	opls_867	1	NGb	H1X	3	0.0	1.0080
5553	opls_868	1	NGb	H1Y	3	0.0	1.0080
5554	opls_869	1	NGb	H1Z	3	0.0	1.0080
5555	opls_new	1	NGb	DUM	1	0.0	1.0
5556	opls_871	1	NGb	H21	3	0.0	1.0080
5557	opls_872	1	NGb	H22	3	0.0	1.0080
5558	opls_873	1	NGb	H23	3	0.0	1.0080
5559	opls_874	1	NGb	H24	3	0.0	1.0080
5560	opls_875	1	NGb	H25	3	0.0	1.0080
5561	opls_876	1	NGb	H26	3	0.0	1.0080
5562	opls_877	1	NGb	H27	3	0.0	1.0080
5563	opls_878	1	NGb	H28	3	0.0	1.0080
5564	opls_879	1	NGb	H29	3	0.0	1.0080
5565	opls_880	1	NGb	H2A	3	0.0	1.0080
5566	opls_881	1	NGb	H2B	3	0.0	1.0080
5567	opls_882	1	NGb	H2C	3	0.0	1.0080
5568	opls_883	1	NGb	H2D	3	0.0	1.0080
5569	opls_884	1	NGb	H2E	3	0.0	1.0080
5570	opls_885	1	NGb	H2F	3	0.0	1.0080
5571	opls_886	1	NGb	H2G	3	0.0	1.0080
5572	opls_887	1	NGb	H2H	3	0.0	1.0080
5573	opls_888	1	NGb	H2I	3	0.0	1.0080
5574	opls_889	1	NGb	H2J	3	0.0	1.0080
5575	opls_890	1	NGb	H2K	3	0.0	1.0080
5576	opls_891	1	NGb	H2M	3	0.0	1.0080
5577	opls_892	1	NGb	H2N	3	0.0	1.0080
5578	opls_893	1	NGb	H2O	3	0.0	1.0080
5579	opls_894	1	NGb	H2P	3	0.0	1.0080
5580	opls_895	1	NGb	H2Q	3	0.0	1.0080
5581	opls_896	1	NGb	H2R	3	0.0	1.0080
5582	opls_897	1	NGb	H2S	3	0.0	1.0080
5583	opls_898	1	NGb	H2T	4	0.0	1.0080
5584	opls_899	1	NGb	H2U	4	0.0	1.0080
5585	opls_800	1	NGb	C00	1	0.0	12.0110
5586	opls_801	1	NGb	N01	1	0.0	14.0070
5587	opls_802	1	NGb	C02	1	0.0	12.0110
5588	opls_803	1	NGb	C03	1	0.0	12.0110
5589	opls_804	1	NGb	O04	1	0.0	15.9990
5590	opls_805	1	NGb	C05	1	0.0	12.0110
5591	opls_806	1	NGb	C06	1	0.0	12.0110
5592	opls_807	1	NGb	C07	1	0.0	12.0110
5593	opls_808	1	NGb	C08	1	0.0	12.0110
5594	opls_809	1	NGb	C09	1	0.0	12.0110
5595	opls_810	1	NGb	C0A	1	0.0	12.0110
5596	opls_811	1	NGb	C0B	1	0.0	12.0110
5597	opls_812	1	NGb	C0C	1	0.0	12.0110
5598	opls_new	1	NGb	DUM	1	0.0	1.0
5599	opls_814	1	NGb	C0E	1	0.0	12.0110
5600	opls_815	1	NGb	C0F	1	0.0	12.0110
5601	opls_816	1	NGb	C0G	1	0.0	12.0110
5602	opls_817	1	NGb	C0H	1	0.0	12.0110
5603	opls_818	1	NGb	C0I	1	0.0	12.0110
5604	opls_819	1	NGb	C0J	1	0.0	12.0110
5605	opls_820	1	NGb	C0K	1	0.0	12.0110
5606	opls_821	1	NGb	C0M	1	0.0	12.0110
5607	opls_822	1	NGb	C0N	1	0.0	12.0110
5608	opls_823	1	NGb	C0O	1	0.0	12.0110
5609	opls_824	1	NGb	C0P	1	0.0	12.0110
5610	opls_825	1	NGb	C0Q	1	0.0	12.0110
5611	opls_826	1	NGb	C0R	1	0.0	12.0110
5612	opls_827	1	NGb	C0S	1	0.0	12.0110
5613	opls_828	1	NGb	C0T	1	0.0	12.0110
5614	opls_829	1	NGb	C0U	1	0.0	12.0110
5615	opls_830	1	NGb	C0V	1	0.0	12.0110
5616	opls_831	1	NGb	C0W	1	0.0	12.0110
5617	opls_832	1	NGb	C0X	2	0.0	12.0110
5618	opls_833	1	NGb	N0Y	2	0.0	14.0070
5619	opls_834	1	NGb	C0Z	2	0.0	12.0110
5620	opls_835	1	NGb	C10	2	0.0	12.0110
5621	opls_836	1	NGb	C11	2	0.0	12.0110
5622	opls_837	1	NGb	N12	2	0.0	14.0070
5623	opls_838	1	NGb	C13	2	0.0	12.0110
5624	opls_839	1	NGb	N14	2	0.0	14.0070
5625	opls_840	1	NGb	O15	2	0.0	15.9990
5626	opls_841	1	NGb	C16	2	0.0	12.0110
5627	opls_842	1	NGb	C17	2	0.0	12.0110
5628	opls_843	1	NGb	C18	2	0.0	12.0110
5629	opls_844	1	NGb	C19	2	0.0	12.0110
5630	opls_845	1	NGb	C1A	2	0.0	12.0110
5631	opls_846	1	NGb	C1B	2	0.0	12.0110
5632	opls_847	1	NGb	C1C	2	0.0	12.0110
5633	opls_848	1	NGb	C1D	2	0.0	12.0110
5634	opls_849	1	NGb	F1E	2	0.0	18.9984
5635	opls_850	1	NGb	F1F	2	0.0	18.9984
5636	opls_851	1	NGb	F1G	2	0.0	18.9984
5637	opls_852	1	NGb	C1H	2	0.0	12.0110
5638	opls_853	1	NGb	C1I	2	0.0	12.0110
5639	opls_854	1	NGb	C1J	2	0.0	12.0110
5640	opls_855	1	NGb	C1K	2	0.0	12.0110
5641	opls_856	1	NGb	C1M	2	0.0	12.0110
5642	opls_857	1	NGb	C1N	2	0.0	12.0110
5643	opls_858	1	NGb	C1O	2	0.0	12.0110
5644	opls_859	1	NGb	H1P	2	0.0	1.0080
5645	opls_860	1	NGb	H1Q	2	0.0	1.0080
5646	opls_861	1	NGb	H1R	2	0.0	1.0080
5647	opls_862	1	NGb	H1S	2	0.0	1.0080
5648	opls_863	1	NGb	H1T	2	0.0	1.0080
5649	opls_864	1	NGb	H1U	2	0.0	1.0080
5650	opls_865	1	NGb	H1V	3	0.0	1.0080
5651	opls_866	1	NGb	H1W	3	0.0	1.0080
5652	opls_867	1	NGb	H1X	3	0.0	1.0080
5653	opls_868	1	NGb	H1Y	3	0.0	1.0080
5654	opls_869	1	NGb	H1Z	3	0.0	1.0080
5655	opls_new	1	NGb	DUM	1	0.0	1.0
5656	opls_871	1	NGb	H21	3	0.0	1.0080
5657	opls_872	1	NGb	H22	3	0.0	1.0080
5658	opls_873	1	NGb	H23	3	0.0	1.0080
5659	opls_874	1	NGb	H24	3	0.0	1.0080
5660	opls_875	1	NGb	H25	3	0.0	1.0080
5661	opls_876	1	NGb	H26	3	0.0	1.0080
5662	opls_877	1	NGb	H27	3	0.0	1.0080
5663	opls_878	1	NGb	H28	3	0.0	1.0080
5664	opls_879	1	NGb	H29	3	0.0	1.0080
5665	opls_880	1	NGb	H2A	3	0.0	1.0080
5666	opls_881	1	NGb	H2B	3	0.0	1.0080
5667	opls_882	1	NGb	H2C	3	0.0	1.0080
5668	opls_883	1	NGb	H2D	3	0.0	1.0080
5669	opls_884	1	NGb	H2E	3	0.0	1.0080
5670	opls_885	1	NGb	H2F	3	0.0	1.0080
5671	opls_886	1	NGb	H2G	3	0.0	1.0080
5672	opls_887	1	NGb	H2H	3	0.0	1.0080
5673	opls_888	1	NGb	H2I	3	0.0	1.0080
5674	opls_889	1	NGb	H2J	3	0.0	1.0080
5675	opls_890	1	NGb	H2K	3	0.0	1.0080
5676	opls_891	1	NGb	H2M	3	0.0	1.0080
5677	opls_892	1	NGb	H2N	3	0.0	1.0080
5678	opls_893	1	NGb	H2O	3	0.0	1.0080
5679	opls_894	1	NGb	H2P	3	0.0	1.0080
5680	opls_895	1	NGb	H2Q	3	0.0	1.0080
5681	opls_896	1	NGb	H2R	3	0.0	1.0080
5682	opls_897	1	NGb	H2S	3	0.0	1.0080
5683	opls_898	1	NGb	H2T	4	0.0	1.0080
5684	opls_899	1	NGb	H2U	4	0.0	1.0080
5685	opls_800	1	NGb	C00	1	0.0	12.0110
5686	opls_801	1	NGb	N01	1	0.0	14.0070
5687	opls_802	1	NGb	C02	1	0.0	12.0110
5688	opls_803	1	NGb	C03	1	0.0	12.0110
5689	opls_804	1	NGb	O04	1	0.0	15.9990
5690	opls_805	1	NGb	C05	1	0.0	12.0110
5691	opls_806	1	NGb	C06	1	0.0	12.0110
5692	opls_807	1	NGb	C07	1	0.0	12.0110
5693	opls_808	1	NGb	C08	1	0.0	12.0110
5694	opls_809	1	NGb	C09	1	0.0	12.0110
5695	opls_810	1	NGb	C0A	1	0.0	12.0110
5696	opls_811	1	NGb	C0B	1	0.0	12.0110
5697	opls_812	1	NGb	C0C	1	0.0	12.0110
5698	opls_new	1	NGb	DUM	1	0.0	1.0
5699	opls_814	1	NGb	C0E	1	0.0	12.0110
5700	opls_815	1	NGb	C0F	1	0.0	12.0110
5701	opls_816	1	NGb	C0G	1	0.0	12.0110
5702	opls_817	1	NGb	C0H	1	0.0	12.0110
5703	opls_818	1	NGb	C0I	1	0.0	12.0110
5704	opls_819	1	NGb	C0J	1	0.0	12.0110
5705	opls_820	1	NGb	C0K	1	0.0	12.0110
5706	opls_821	1	NGb	C0M	1	0.0	12.0110
5707	opls_822	1	NGb	C0N	1	0.0	12.0110
5708	opls_823	1	NGb	C0O	1	0.0	12.0110
5709	opls_824	1	NGb	C0P	1	0.0	12.0110
5710	opls_825	1	NGb	C0Q	1	0.0	12.0110
5711	opls_826	1	NGb	C0R	1	0.0	12.0110
5712	opls_827	1	NGb	C0S	1	0.0	12.0110
5713	opls_828	1	NGb	C0T	1	0.0	12.0110
5714	opls_829	1	NGb	C0U	1	0.0	12.0110
5715	opls_830	1	NGb	C0V	1	0.0	12.0110
5716	opls_831	1	NGb	C0W	1	0.0	12.0110
5717	opls_832	1	NGb	C0X	2	0.0	12.0110
5718	opls_833	1	NGb	N0Y	2	0.0	14.0070
5719	opls_834	1	NGb	C0Z	2	0.0	12.0110
5720	opls_835	1	NGb	C10	2	0.0	12.0110
5721	opls_836	1	NGb	C11	2	0.0	12.0110
5722	opls_837	1	NGb	N12	2	0.0	14.0070
5723	opls_838	1	NGb	C13	2	0.0	12.0110
5724	opls_839	1	NGb	N14	2	0.0	14.0070
5725	opls_840	1	NGb	O15	2	0.0	15.9990
5726	opls_841	1	NGb	C16	2	0.0	12.0110
5727	opls_842	1	NGb	C17	2	0.0	12.0110
5728	opls_843	1	NGb	C18	2	0.0	12.0110
5729	opls_844	1	NGb	C19	2	0.0	12.0110
5730	opls_845	1	NGb	C1A	2	0.0	12.0110
5731	opls_846	1	NGb	C1B	2	0.0	12.0110
5732	opls_847	1	NGb	C1C	2	0.0	12.0110
5733	opls_848	1	NGb	C1D	2	0.0	12.0110
5734	opls_849	1	NGb	F1E	2	0.0	18.9984
5735	opls_850	1	NGb	F1F	2	0.0	18.9984
5736	opls_851	1	NGb	F1G	2	0.0	18.9984
5737	opls_852	1	NGb	C1H	2	0.0	12.0110
5738	opls_853	1	NGb	C1I	2	0.0	12.0110
5739	opls_854	1	NGb	C1J	2	0.0	12.0110
5740	opls_855	1	NGb	C1K	2	0.0	12.0110
5741	opls_856	1	NGb	C1M	2	0.0	12.0110
5742	opls_857	1	NGb	C1N	2	0.0	12.0110
5743	opls_858	1	NGb	C1O	2	0.0	12.0110
5744	opls_859	1	NGb	H1P	2	0.0	1.0080
5745	opls_860	1	NGb	H1Q	2	0.0	1.0080
5746	opls_861	1	NGb	H1R	2	0.0	1.0080
5747	opls_862	1	NGb	H1S	2	0.0	1.0080
5748	opls_863	1	NGb	H1T	2	0.0	1.0080
5749	opls_864	1	NGb	H1U	2	0.0	1.0080
5750	opls_865	1	NGb	H1V	3	0.0	1.0080
5751	opls_866	1	NGb	H1W	3	0.0	1.0080
5752	opls_867	1	NGb	H1X	3	0.0	1.0080
5753	opls_868	1	NGb	H1Y	3	0.0	1.0080
5754	opls_869	1	NGb	H1Z	3	0.0	1.0080
5755	opls_new	1	NGb	DUM	1	0.0	1.0
5756	opls_871	1	NGb	H21	3	0.0	1.0080
5757	opls_872	1	NGb	H22	3	0.0	1.0080
5758	opls_873	1	NGb	H23	3	0.0	1.0080
5759	opls_874	1	NGb	H24	3	0.0	1.0080
5760	opls_875	1	NGb	H25	3	0.0	1.0080
5761	opls_876	1	NGb	H26	3	0.0	1.0080
5762	opls_877	1	NGb	H27	3	0.0	1.0080
5763	opls_878	1	NGb	H28	3	0.0	1.0080
5764	opls_879	1	NGb	H29	3	0.0	1.0080
5765	opls_880	1	NGb	H2A	3	0.0	1.0080
5766	opls_881	1	NGb	H2B	3	0.0	1.0080
5767	opls_882	1	NGb	H2C	3	0.0	1.0080
5768	opls_883	1	NGb	H2D	3	0.0	1.0080
5769	opls_884	1	NGb	H2E	3	0.0	1.0080
5770	opls_885	1	NGb	H2F	3	0.0	1.0080
5771	opls_886	1	NGb	H2G	3	0.0	1.0080
5772	opls_887	1	NGb	H2H	3	0.0	1.0080
5773	opls_888	1	NGb	H2I	3	0.0	1.0080
5774	opls_889	1	NGb	H2J	3	0.0	1.0080
5775	opls_890	1	NGb	H2K	3	0.0	1.0080
5776	opls_891	1	NGb	H2M	3	0.0	1.0080
5777	opls_892	1	NGb	H2N	3	0.0	1.0080
5778	opls_893	1	NGb	H2O	3	0.0	1.0080
5779	opls_894	1	NGb	H2P	3	0.0	1.0080
5780	opls_895	1	NGb	H2Q	3	0.0	1.0080
5781	opls_896	1	NGb	H2R	3	0.0	1.0080
5782	opls_897	1	NGb	H2S	3	0.0	1.0080
5783	opls_898	1	NGb	H2T	4	0.0	1.0080
5784	opls_899	1	NGb	H2U	4	0.0	1.0080
5785	opls_800	1	NGb	C00	1	0.0	12.0110
5786	opls_801	1	NGb	N01	1	0.0	14.0070
5787	opls_802	1	NGb	C02	1	0.0	12.0110
5788	opls_803	1	NGb	C03	1	0.0	12.0110
5789	opls_804	1	NGb	O04	1	0.0	15.9990
5790	opls_805	1	NGb	C05	1	0.0	12.0110
5791	opls_806	1	NGb	C06	1	0.0	12.0110
5792	opls_807	1	NGb	C07	1	0.0	12.0110
5793	opls_808	1	NGb	C08	1	0.0	12.0110
5794	opls_809	1	NGb	C09	1	0.0	12.0110
5795	opls_810	1	NGb	C0A	1	0.0	12.0110
5796	opls_811	1	NGb	C0B	1	0.0	12.0110
5797	opls_812	1	NGb	C0C	1	0.0	12.0110
5798	opls_new	1	NGb	DUM	1	0.0	1.0
5799	opls_814	1	NGb	C0E	1	0.0	12.0110
5800	opls_815	1	NGb	C0F	1	0.0	12.0110
5801	opls_816	1	NGb	C0G	1	0.0	12.0110
5802	opls_817	1	NGb	C0H	1	0.0	12.0110
5803	opls_818	1	NGb	C0I	1	0.0	12.0110
5804	opls_819	1	NGb	C0J	1	0.0	12.0110
5805	opls_820	1	NGb	C0K	1	0.0	12.0110
5806	opls_821	1	NGb	C0M	1	0.0	12.0110
5807	opls_822	1	NGb	C0N	1	0.0	12.0110
5808	opls_823	1	NGb	C0O	1	0.0	12.0110
5809	opls_824	1	NGb	C0P	1	0.0	12.0110
5810	opls_825	1	NGb	C0Q	1	0.0	12.0110
5811	opls_826	1	NGb	C0R	1	0.0	12.0110
5812	opls_827	1	NGb	C0S	1	0.0	12.0110
5813	opls_828	1	NGb	C0T	1	0.0	12.0110
5814	opls_829	1	NGb	C0U	1	0.0	12.0110
5815	opls_830	1	NGb	C0V	1	0.0	12.0110
5816	opls_831	1	NGb	C0W	1	0.0	12.0110
5817	opls_832	1	NGb	C0X	2	0.0	12.0110
5818	opls_833	1	NGb	N0Y	2	0.0	14.0070
5819	opls_834	1	NGb	C0Z	2	0.0	12.0110
5820	opls_835	1	NGb	C10	2	0.0	12.0110
5821	opls_836	1	NGb	C11	2	0.0	12.0110
5822	opls_837	1	NGb	N12	2	0.0	14.0070
5823	opls_838	1	NGb	C13	2	0.0	12.0110
5824	opls_839	1	NGb	N14	2	0.0	14.0070
5825	opls_840	1	NGb	O15	2	0.0	15.9990
5826	opls_841	1	NGb	C16	2	0.0	12.0110
5827	opls_842	1	NGb	C17	2	0.0	12.0110
5828	opls_843	1	NGb	C18	2	0.0	12.0110
5829	opls_844	1	NGb	C19	2	0.0	12.0110
5830	opls_845	1	NGb	C1A	2	0.0	12.0110
5831	opls_846	1	NGb	C1B	2	0.0	12.0110
5832	opls_847	1	NGb	C1C	2	0.0	12.0110
5833	opls_848	1	NGb	C1D	2	0.0	12.0110
5834	opls_849	1	NGb	F1E	2	0.0	18.9984
5835	opls_850	1	NGb	F1F	2	0.0	18.9984
5836	opls_851	1	NGb	F1G	2	0.0	18.9984
5837	opls_852	1	NGb	C1H	2	0.0	12.0110
5838	opls_853	1	NGb	C1I	2	0.0	12.0110
5839	opls_854	1	NGb	C1J	2	0.0	12.0110
5840	opls_855	1	NGb	C1K	2	0.0	12.0110
5841	opls_856	1	NGb	C1M	2	0.0	12.0110
5842	opls_857	1	NGb	C1N	2	0.0	12.0110
5843	opls_858	1	NGb	C1O	2	0.0	12.0110
5844	opls_859	1	NGb	H1P	2	0.0	1.0080
5845	opls_860	1	NGb	H1Q	2	0.0	1.0080
5846	opls_861	1	NGb	H1R	2	0.0	1.0080
5847	opls_862	1	NGb	H1S	2	0.0	1.0080
5848	opls_863	1	NGb	H1T	2	0.0	1.0080
5849	opls_864	1	NGb	H1U	2	0.0	1.0080
5850	opls_865	1	NGb	H1V	3	0.0	1.0080
5851	opls_866	1	NGb	H1W	3	0.0	1.0080
5852	opls_867	1	NGb	H1X	3	0.0	1.0080
5853	opls_868	1	NGb	H1Y	3	0.0	1.0080
5854	opls_869	1	NGb	H1Z	3	0.0	1.0080
5855	opls_new	1	NGb	DUM	1	0.0	1.0
5856	opls_871	1	NGb	H21	3	0.0	1.0080
5857	opls_872	1	NGb	H22	3	0.0	1.0080
5858	opls_873	1	NGb	H23	3	0.0	1.0080
5859	opls_874	1	NGb	H24	3	0.0	1.0080
5860	opls_875	1	NGb	H25	3	0.0	1.0080
5861	opls_876	1	NGb	H26	3	0.0	1.0080
5862	opls_877	1	NGb	H27	3	0.0	1.0080
5863	opls_878	1	NGb	H28	3	0.0	1.0080
5864	opls_879	1	NGb	H29	3	0.0	1.0080
5865	opls_880	1	NGb	H2A	3	0.0	1.0080
5866	opls_881	1	NGb	H2B	3	0.0	1.0080
5867	opls_882	1	NGb	H2C	3	0.0	1.0080
5868	opls_883	1	NGb	H2D	3	0.0	1.0080
5869	opls_884	1	NGb	H2E	3	0.0	1.0080
5870	opls_885	1	NGb	H2F	3	0.0	1.0080
5871	opls_886	1	NGb	H2G	3	0.0	1.0080
5872	opls_887	1	NGb	H2H	3	0.0	1.0080
5873	opls_888	1	NGb	H2I	3	0.0	1.0080
5874	opls_889	1	NGb	H2J	3	0.0	1.0080
5875	opls_890	1	NGb	H2K	3	0.0	1.0080
5876	opls_891	1	NGb	H2M	3	0.0	1.0080
5877	opls_892	1	NGb	H2N	3	0.0	1.0080
5878	opls_893	1	NGb	H2O	3	0.0	1.0080
5879	opls_894	1	NGb	H2P	3	0.0	1.0080
5880	opls_895	1	NGb	H2Q	3	0.0	1.0080
5881	opls_896	1	NGb	H2R	3	0.0	1.0080
5882	opls_897	1	NGb	H2S	3	0.0	1.0080
5883	opls_898	1	NGb	H2T	4	0.0	1.0080
5884	opls_899	1	NGb	H2U	4	0.0	1.0080
5885	opls_800	1	NGb	C00	1	0.0	12.0110
5886	opls_801	1	NGb	N01	1	0.0	14.0070
5887	opls_802	1	NGb	C02	1	0.0	12.0110
5888	opls_803	1	NGb	C03	1	0.0	12.0110
5889	opls_804	1	NGb	O04	1	0.0	15.9990
5890	opls_805	1	NGb	C05	1	0.0	12.0110
5891	opls_806	1	NGb	C06	1	0.0	12.0110
5892	opls_807	1	NGb	C07	1	0.0	12.0110
5893	opls_808	1	NGb	C08	1	0.0	12.0110
5894	opls_809	1	NGb	C09	1	0.0	12.0110
5895	opls_810	1	NGb	C0A	1	0.0	12.0110
5896	opls_811	1	NGb	C0B	1	0.0	12.0110
5897	opls_812	1	NGb	C0C	1	0.0	12.0110
5898	opls_new	1	NGb	DUM	1	0.0	1.0
5899	opls_814	1	NGb	C0E	1	0.0	12.0110
5900	opls_815	1	NGb	C0F	1	0.0	12.0110
5901	opls_816	1	NGb	C0G	1	0.0	12.0110
5902	opls_817	1	NGb	C0H	1	0.0	12.0110
5903	opls_818	1	NGb	C0I	1	0.0	12.0110
5904	opls_819	1	NGb	C0J	1	0.0	12.0110
5905	opls_820	1	NGb	C0K	1	0.0	12.0110
5906	opls_821	1	NGb	C0M	1	0.0	12.0110
5907	opls_822	1	NGb	C0N	1	0.0	12.0110
5908	opls_823	1	NGb	C0O	1	0.0	12.0110
5909	opls_824	1	NGb	C0P	1	0.0	12.0110
5910	opls_825	1	NGb	C0Q	1	0.0	12.0110
5911	opls_826	1	NGb	C0R	1	0.0	12.0110
5912	opls_827	1	NGb	C0S	1	0.0	12.0110
5913	opls_828	1	NGb	C0T	1	0.0	12.0110
5914	opls_829	1	NGb	C0U	1	0.0	12.0110
5915	opls_830	1	NGb	C0V	1	0.0	12.0110
5916	opls_831	1	NGb	C0W	1	0.0	12.0110
5917	opls_832	1	NGb	C0X	2	0.0	12.0110
5918	opls_833	1	NGb	N0Y	2	0.0	14.0070
5919	opls_834	1	NGb	C0Z	2	0.0	12.0110
5920	opls_835	1	NGb	C10	2	0.0	12.0110
5921	opls_836	1	NGb	C11	2	0.0	12.0110
5922	opls_837	1	NGb	N12	2	0.0	14.0070
5923	opls_838	1	NGb	C13	2	0.0	12.0110
5924	opls_839	1	NGb	N14	2	0.0	14.0070
5925	opls_840	1	NGb	O15	2	0.0	15.9990
5926	opls_841	1	NGb	C16	2	0.0	12.0110
5927	opls_842	1	NGb	C17	2	0.0	12.0110
5928	opls_843	1	NGb	C18	2	0.0	12.0110
5929	opls_844	1	NGb	C19	2	0.0	12.0110
5930	opls_845	1	NGb	C1A	2	0.0	12.0110
5931	opls_846	1	NGb	C1B	2	0.0	12.0110
5932	opls_847	1	NGb	C1C	2	0.0	12.0110
5933	opls_848	1	NGb	C1D	2	0.0	12.0110
5934	opls_849	1	NGb	F1E	2	0.0	18.9984
5935	opls_850	1	NGb	F1F	2	0.0	18.9984
5936	opls_851	1	NGb	F1G	2	0.0	18.9984
5937	opls_852	1	NGb	C1H	2	0.0	12.0110
5938	opls_853	1	NGb	C1I	2	0.0	12.0110
5939	opls_854	1	NGb	C1J	2	0.0	12.0110
5940	opls_855	1	NGb	C1K	2	0.0	12.0110
5941	opls_856	1	NGb	C1M	2	0.0	12.0110
5942	opls_857	1	NGb	C1N	2	0.0	12.0110
5943	opls_858	1	NGb	C1O	2	0.0	12.0110
5944	opls_859	1	NGb	H1P	2	0.0	1.0080
5945	opls_860	1	NGb	H1Q	2	0.0	1.0080
5946	opls_861	1	NGb	H1R	2	0.0	1.0080
5947	opls_862	1	NGb	H1S	2	0.0	1.0080
5948	opls_863	1	NGb	H1T	2	0.0	1.0080
5949	opls_864	1	NGb	H1U	2	0.0	1.0080
5950	opls_865	1	NGb	H1V	3	0.0	1.0080
5951	opls_866	1	NGb	H1W	3	0.0	1.0080
5952	opls_867	1	NGb	H1X	3	0.0	1.0080
5953	opls_868	1	NGb	H1Y	3	0.0	1.0080
5954	opls_869	1	NGb	H1Z	3	0.0	1.0080
5955	opls_new	1	NGb	DUM	1	0.0	1.0
5956	opls_871	1	NGb	H21	3	0.0	1.0080
5957	opls_872	1	NGb	H22	3	0.0	1.0080
5958	opls_873	1	NGb	H23	3	0.0	1.0080
5959	opls_874	1	NGb	H24	3	0.0	1.0080
5960	opls_875	1	NGb	H25	3	0.0	1.0080
5961	opls_876	1	NGb	H26	3	0.0	1.0080
5962	opls_877	1	NGb	H27	3	0.0	1.0080
5963	opls_878	1	NGb	H28	3	0.0	1.0080
5964	opls_879	1	NGb	H29	3	0.0	1.0080
5965	opls_880	1	NGb	H2A	3	0.0	1.0080
5966	opls_881	1	NGb	H2B	3	0.0	1.0080
5967	opls_882	1	NGb	H2C	3	0.0	1.0080
5968	opls_883	1	NGb	H2D	3	0.0	1.0080
5969	opls_884	1	NGb	H2E	3	0.0	1.0080
5970	opls_885	1	NGb	H2F	3	0.0	1.0080
5971	opls_886	1	NGb	H2G	3	0.0	1.0080
5972	opls_887	1	NGb	H2H	3	0.0	1.0080
5973	opls_888	1	NGb	H2I	3	0.0	1.0080
5974	opls_889	1	NGb	H2J	3	0.0	1.0080
5975	opls_890	1	NGb	H2K	3	0.0	1.0080
5976	opls_891	1	NGb	H2M	3	0.0	1.0080
5977	opls_892	1	NGb	H2N	3	0.0	1.0080
5978	opls_893	1	NGb	H2O	3	0.0	1.0080
5979	opls_894	1	NGb	H2P	3	0.0	1.0080
5980	opls_895	1	NGb	H2Q	3	0.0	1.0080
5981	opls_896	1	NGb	H2R	3	0.0	1.0080
5982	opls_897	1	NGb	H2S	3	0.0	1.0080
5983	opls_898	1	NGb	H2T	4	0.0	1.0080
5984	opls_899	1	NGb	H2U	4	0.0	1.0080
5985	opls_800	1	NGb	C00	1	0.0	12.0110
5986	opls_801	1	NGb	N01	1	0.0	14.0070
5987	opls_802	1	NGb	C02	1	0.0	12.0110
5988	opls_803	1	NGb	C03	1	0.0	12.0110
5989	opls_804	1	NGb	O04	1	0.0	15.9990
5990	opls_805	1	NGb	C05	1	0.0	12.0110
5991	opls_806	1	NGb	C06	1	0.0	12.0110
5992	opls_807	1	NGb	C07	1	0.0	12.0110
5993	opls_808	1	NGb	C08	1	0.0	12.0110
5994	opls_809	1	NGb	C09	1	0.0	12.0110
5995	opls_810	1	NGb	C0A	1	0.0	12.0110
5996	opls_811	1	NGb	C0B	1	0.0	12.0110
5997	opls_812	1	NGb	C0C	1	0.0	12.0110
5998	opls_new	1	NGb	DUM	1	0.0	1.0
5999	opls_814	1	NGb	C0E	1	0.0	12.0110
6000	opls_815	1	NGb	C0F	1	0.0	12.0110
6001	opls_816	1	NGb	C0G	1	0.0	12.0110
6002	opls_817	1	NGb	C0H	1	0.0	12.0110
6003	opls_818	1	NGb	C0I	1	0.0	12.0110
6004	opls_819	1	NGb	C0J	1	0.0	12.0110
6005	opls_820	1	NGb	C0K	1	0.0	12.0110
6006	opls_821	1	NGb	C0M	1	0.0	12.0110
6007	opls_822	1	NGb	C0N	1	0.0	12.0110
6008	opls_823	1	NGb	C0O	1	0.0	12.0110
6009	opls_824	1	NGb	C0P	1	0.0	12.0110
6010	opls_825	1	NGb	C0Q	1	0.0	12.0110
6011	opls_826	1	NGb	C0R	1	0.0	12.0110
6012	opls_827	1	NGb	C0S	1	0.0	12.0110
6013	opls_828	1	NGb	C0T	1	0.0	12.0110
6014	opls_829	1	NGb	C0U	1	0.0	12.0110
6015	opls_830	1	NGb	C0V	1	0.0	12.0110
6016	opls_831	1	NGb	C0W	1	0.0	12.0110
6017	opls_832	1	NGb	C0X	2	0.0	12.0110
6018	opls_833	1	NGb	N0Y	2	0.0	14.0070
6019	opls_834	1	NGb	C0Z	2	0.0	12.0110
6020	opls_835	1	NGb	C10	2	0.0	12.0110
6021	opls_836	1	NGb	C11	2	0.0	12.0110
6022	opls_837	1	NGb	N12	2	0.0	14.0070
6023	opls_838	1	NGb	C13	2	0.0	12.0110
6024	opls_839	1	NGb	N14	2	0.0	14.0070
6025	opls_840	1	NGb	O15	2	0.0	15.9990
6026	opls_841	1	NGb	C16	2	0.0	12.0110
6027	opls_842	1	NGb	C17	2	0.0	12.0110
6028	opls_843	1	NGb	C18	2	0.0	12.0110
6029	opls_844	1	NGb	C19	2	0.0	12.0110
6030	opls_845	1	NGb	C1A	2	0.0	12.0110
6031	opls_846	1	NGb	C1B	2	0.0	12.0110
6032	opls_847	1	NGb	C1C	2	0.0	12.0110
6033	opls_848	1	NGb	C1D	2	0.0	12.0110
6034	opls_849	1	NGb	F1E	2	0.0	18.9984
6035	opls_850	1	NGb	F1F	2	0.0	18.9984
6036	opls_851	1	NGb	F1G	2	0.0	18.9984
6037	opls_852	1	NGb	C1H	2	0.0	12.0110
6038	opls_853	1	NGb	C1I	2	0.0	12.0110
6039	opls_854	1	NGb	C1J	2	0.0	12.0110
6040	opls_855	1	NGb	C1K	2	0.0	12.0110
6041	opls_856	1	NGb	C1M	2	0.0	12.0110
6042	opls_857	1	NGb	C1N	2	0.0	12.0110
6043	opls_858	1	NGb	C1O	2	0.0	12.0110
6044	opls_859	1	NGb	H1P	2	0.0	1.0080
6045	opls_860	1	NGb	H1Q	2	0.0	1.0080
6046	opls_861	1	NGb	H1R	2	0.0	1.0080
6047	opls_862	1	NGb	H1S	2	0.0	1.0080
6048	opls_863	1	NGb	H1T	2	0.0	1.0080
6049	opls_864	1	NGb	H1U	2	0.0	1.0080
6050	opls_865	1	NGb	H1V	3	0.0	1.0080
6051	opls_866	1	NGb	H1W	3	0.0	1.0080
6052	opls_867	1	NGb	H1X	3	0.0	1.0080
6053	opls_868	1	NGb	H1Y	3	0.0	1.0080
6054	opls_869	1	NGb	H1Z	3	0.0	1.0080
6055	opls_new	1	NGb	DUM	1	0.0	1.0
6056	opls_871	1	NGb	H21	3	0.0	1.0080
6057	opls_872	1	NGb	H22	3	0.0	1.0080
6058	opls_873	1	NGb	H23	3	0.0	1.0080
6059	opls_874	1	NGb	H24	3	0.0	1.0080
6060	opls_875	1	NGb	H25	3	0.0	1.0080
6061	opls_876	1	NGb	H26	3	0.0	1.0080
6062	opls_877	1	NGb	H27	3	0.0	1.0080
6063	opls_878	1	NGb	H28	3	0.0	1.0080
6064	opls_879	1	NGb	H29	3	0.0	1.0080
6065	opls_880	1	NGb	H2A	3	0.0	1.0080
6066	opls_881	1	NGb	H2B	3	0.0	1.0080
6067	opls_882	1	NGb	H2C	3	0.0	1.0080
6068	opls_883	1	NGb	H2D	3	0.0	1.0080
6069	opls_884	1	NGb	H2E	3	0.0	1.0080
6070	opls_885	1	NGb	H2F	3	0.0	1.0080
6071	opls_886	1	NGb	H2G	3	0.0	1.0080
6072	opls_887	1	NGb	H2H	3	0.0	1.0080
6073	opls_888	1	NGb	H2I	3	0.0	1.0080
6074	opls_889	1	NGb	H2J	3	0.0	1.0080
6075	opls_890	1	NGb	H2K	3	0.0	1.0080
6076	opls_891	1	NGb	H2M	3	0.0	1.0080
6077	opls_892	1	NGb	H2N	3	0.0	1.0080
6078	opls_893	1	NGb	H2O	3	0.0	1.0080
6079	opls_894	1	NGb	H2P	3	0.0	1.0080
6080	opls_895	1	NGb	H2Q	3	0.0	1.0080
6081	opls_896	1	NGb	H2R	3	0.0	1.0080
6082	opls_897	1	NGb	H2S	3	0.0	1.0080
6083	opls_898	1	NGb	H2T	4	0.0	1.0080
6084	opls_899	1	NGb	H2U	4	0.0	1.0080
6085	opls_800	1	NGb	C00	1	0.0	12.0110
6086	opls_801	1	NGb	N01	1	0.0	14.0070
6087	opls_802	1	NGb	C02	1	0.0	12.0110
6088	opls_803	1	NGb	C03	1	0.0	12.0110
6089	opls_804	1	NGb	O04	1	0.0	15.9990
6090	opls_805	1	NGb	C05	1	0.0	12.0110
6091	opls_806	1	NGb	C06	1	0.0	12.0110
6092	opls_807	1	NGb	C07	1	0.0	12.0110
6093	opls_808	1	NGb	C08	1	0.0	12.0110
6094	opls_809	1	NGb	C09	1	0.0	12.0110
6095	opls_810	1	NGb	C0A	1	0.0	12.0110
6096	opls_811	1	NGb	C0B	1	0.0	12.0110
6097	opls_812	1	NGb	C0C	1	0.0	12.0110
6098	opls_new	1	NGb	DUM	1	0.0	1.0
6099	opls_814	1	NGb	C0E	1	0.0	12.0110
6100	opls_815	1	NGb	C0F	1	0.0	12.0110
6101	opls_816	1	NGb	C0G	1	0.0	12.0110
6102	opls_817	1	NGb	C0H	1	0.0	12.0110
6103	opls_818	1	NGb	C0I	1	0.0	12.0110
6104	opls_819	1	NGb	C0J	1	0.0	12.0110
6105	opls_820	1	NGb	C0K	1	0.0	12.0110
6106	opls_821	1	NGb	C0M	1	0.0	12.0110
6107	opls_822	1	NGb	C0N	1	0.0	12.0110
6108	opls_823	1	NGb	C0O	1	0.0	12.0110
6109	opls_824	1	NGb	C0P	1	0.0	12.0110
6110	opls_825	1	NGb	C0Q	1	0.0	12.0110
6111	opls_826	1	NGb	C0R	1	0.0	12.0110
6112	opls_827	1	NGb	C0S	1	0.0	12.0110
6113	opls_828	1	NGb	C0T	1	0.0	12.0110
6114	opls_829	1	NGb	C0U	1	0.0	12.0110
6115	opls_830	1	NGb	C0V	1	0.0	12.0110
6116	opls_831	1	NGb	C0W	1	0.0	12.0110
6117	opls_832	1	NGb	C0X	2	0.0	12.0110
6118	opls_833	1	NGb	N0Y	2	0.0	14.0070
6119	opls_834	1	NGb	C0Z	2	0.0	12.0110
6120	opls_835	1	NGb	C10	2	0.0	12.0110
6121	opls_836	1	NGb	C11	2	0.0	12.0110
6122	opls_837	1	NGb	N12	2	0.0	14.0070
6123	opls_838	1	NGb	C13	2	0.0	12.0110
6124	opls_839	1	NGb	N14	2	0.0	14.0070
6125	opls_840	1	NGb	O15	2	0.0	15.9990
6126	opls_841	1	NGb	C16	2	0.0	12.0110
6127	opls_842	1	NGb	C17	2	0.0	12.0110
6128	opls_843	1	NGb	C18	2	0.0	12.0110
6129	opls_844	1	NGb	C19	2	0.0	12.0110
6130	opls_845	1	NGb	C1A	2	0.0	12.0110
6131	opls_846	1	NGb	C1B	2	0.0	12.0110
6132	opls_847	1	NGb	C1C	2	0.0	12.0110
6133	opls_848	1	NGb	C1D	2	0.0	12.0110
6134	opls_849	1	NGb	F1E	2	0.0	18.9984
6135	opls_850	1	NGb	F1F	2	0.0	18.9984
6136	opls_851	1	NGb	F1G	2	0.0	18.9984
6137	opls_852	1	NGb	C1H	2	0.0	12.0110
6138	opls_853	1	NGb	C1I	2	0.0	12.0110
6139	opls_854	1	NGb	C1J	2	0.0	12.0110
6140	opls_855	1	NGb	C1K	2	0.0	12.0110
6141	opls_856	1	NGb	C1M	2	0.0	12.0110
6142	opls_857	1	NGb	C1N	2	0.0	12.0110
6143	opls_858	1	NGb	C1O	2	0.0	12.0110
6144	opls_859	1	NGb	H1P	2	0.0	1.0080
6145	opls_860	1	NGb	H1Q	2	0.0	1.0080
6146	opls_861	1	NGb	H1R	2	0.0	1.0080
6147	opls_862	1	NGb	H1S	2	0.0	1.0080
6148	opls_863	1	NGb	H1T	2	0.0	1.0080
6149	opls_864	1	NGb	H1U	2	0.0	1.0080
6150	opls_865	1	NGb	H1V	3	0.0	1.0080
6151	opls_866	1	NGb	H1W	3	0.0	1.0080
6152	opls_867	1	NGb	H1X	3	0.0	1.0080
6153	opls_868	1	NGb	H1Y	3	0.0	1.0080
6154	opls_869	1	NGb	H1Z	3	0.0	1.0080
6155	opls_new	1	NGb	DUM	1	0.0	1.0
6156	opls_871	1	NGb	H21	3	0.0	1.0080
6157	opls_872	1	NGb	H22	3	0.0	1.0080
6158	opls_873	1	NGb	H23	3	0.0	1.0080
6159	opls_874	1	NGb	H24	3	0.0	1.0080
6160	opls_875	1	NGb	H25	3	0.0	1.0080
6161	opls_876	1	NGb	H26	3	0.0	1.0080
6162	opls_877	1	NGb	H27	3	0.0	1.0080
6163	opls_878	1	NGb	H28	3	0.0	1.0080
6164	opls_879	1	NGb	H29	3	0.0	1.0080
6165	opls_880	1	NGb	H2A	3	0.0	1.0080
6166	opls_881	1	NGb	H2B	3	0.0	1.0080
6167	opls_882	1	NGb	H2C	3	0.0	1.0080
6168	opls_883	1	NGb	H2D	3	0.0	1.0080
6169	opls_884	1	NGb	H2E	3	0.0	1.0080
6170	opls_885	1	NGb	H2F	3	0.0	1.0080
6171	opls_886	1	NGb	H2G	3	0.0	1.0080
6172	opls_887	1	NGb	H2H	3	0.0	1.0080
6173	opls_888	1	NGb	H2I	3	0.0	1.0080
6174	opls_889	1	NGb	H2J	3	0.0	1.0080
6175	opls_890	1	NGb	H2K	3	0.0	1.0080
6176	opls_891	1	NGb	H2M	3	0.0	1.0080
6177	opls_892	1	NGb	H2N	3	0.0	1.0080
6178	opls_893	1	NGb	H2O	3	0.0	1.0080
6179	opls_894	1	NGb	H2P	3	0.0	1.0080
6180	opls_895	1	NGb	H2Q	3	0.0	1.0080
6181	opls_896	1	NGb	H2R	3	0.0	1.0080
6182	opls_897	1	NGb	H2S	3	0.0	1.0080
6183	opls_898	1	NGb	H2T	4	0.0	1.0080
6184	opls_899	1	NGb	H2U	4	0.0	1.0080
6185	opls_800	1	NGb	C00	1	0.0	12.0110
6186	opls_801	1	NGb	N01	1	0.0	14.0070
6187	opls_802	1	NGb	C02	1	0.0	12.0110
6188	opls_803	1	NGb	C03	1	0.0	12.0110
6189	opls_804	1	NGb	O04	1	0.0	15.9990
6190	opls_805	1	NGb	C05	1	0.0	12.0110
6191	opls_806	1	NGb	C06	1	0.0	12.0110
6192	opls_807	1	NGb	C07	1	0.0	12.0110
6193	opls_808	1	NGb	C08	1	0.0	12.0110
6194	opls_809	1	NGb	C09	1	0.0	12.0110
6195	opls_810	1	NGb	C0A	1	0.0	12.0110
6196	opls_811	1	NGb	C0B	1	0.0	12.0110
6197	opls_812	1	NGb	C0C	1	0.0	12.0110
6198	opls_new	1	NGb	DUM	1	0.0	1.0
6199	opls_814	1	NGb	C0E	1	0.0	12.0110
6200	opls_815	1	NGb	C0F	1	0.0	12.0110
6201	opls_816	1	NGb	C0G	1	0.0	12.0110
6202	opls_817	1	NGb	C0H	1	0.0	12.0110
6203	opls_818	1	NGb	C0I	1	0.0	12.0110
6204	opls_819	1	NGb	C0J	1	0.0	12.0110
6205	opls_820	1	NGb	C0K	1	0.0	12.0110
6206	opls_821	1	NGb	C0M	1	0.0	12.0110
6207	opls_822	1	NGb	C0N	1	0.0	12.0110
6208	opls_823	1	NGb	C0O	1	0.0	12.0110
6209	opls_824	1	NGb	C0P	1	0.0	12.0110
6210	opls_825	1	NGb	C0Q	1	0.0	12.0110
6211	opls_826	1	NGb	C0R	1	0.0	12.0110
6212	opls_827	1	NGb	C0S	1	0.0	12.0110
6213	opls_828	1	NGb	C0T	1	0.0	12.0110
6214	opls_829	1	NGb	C0U	1	0.0	12.0110
6215	opls_830	1	NGb	C0V	1	0.0	12.0110
6216	opls_831	1	NGb	C0W	1	0.0	12.0110
6217	opls_832	1	NGb	C0X	2	0.0	12.0110
6218	opls_833	1	NGb	N0Y	2	0.0	14.0070
6219	opls_834	1	NGb	C0Z	2	0.0	12.0110
6220	opls_835	1	NGb	C10	2	0.0	12.0110
6221	opls_836	1	NGb	C11	2	0.0	12.0110
6222	opls_837	1	NGb	N12	2	0.0	14.0070
6223	opls_838	1	NGb	C13	2	0.0	12.0110
6224	opls_839	1	NGb	N14	2	0.0	14.0070
6225	opls_840	1	NGb	O15	2	0.0	15.9990
6226	opls_841	1	NGb	C16	2	0.0	12.0110
6227	opls_842	1	NGb	C17	2	0.0	12.0110
6228	opls_843	1	NGb	C18	2	0.0	12.0110
6229	opls_844	1	NGb	C19	2	0.0	12.0110
6230	opls_845	1	NGb	C1A	2	0.0	12.0110
6231	opls_846	1	NGb	C1B	2	0.0	12.0110
6232	opls_847	1	NGb	C1C	2	0.0	12.0110
6233	opls_848	1	NGb	C1D	2	0.0	12.0110
6234	opls_849	1	NGb	F1E	2	0.0	18.9984
6235	opls_850	1	NGb	F1F	2	0.0	18.9984
6236	opls_851	1	NGb	F1G	2	0.0	18.9984
6237	opls_852	1	NGb	C1H	2	0.0	12.0110
6238	opls_853	1	NGb	C1I	2	0.0	12.0110
6239	opls_854	1	NGb	C1J	2	0.0	12.0110
6240	opls_855	1	NGb	C1K	2	0.0	12.0110
6241	opls_856	1	NGb	C1M	2	0.0	12.0110
6242	opls_857	1	NGb	C1N	2	0.0	12.0110
6243	opls_858	1	NGb	C1O	2	0.0	12.0110
6244	opls_859	1	NGb	H1P	2	0.0	1.0080
6245	opls_860	1	NGb	H1Q	2	0.0	1.0080
6246	opls_861	1	NGb	H1R	2	0.0	1.0080
6247	opls_862	1	NGb	H1S	2	0.0	1.0080
6248	opls_863	1	NGb	H1T	2	0.0	1.0080
6249	opls_864	1	NGb	H1U	2	0.0	1.0080
6250	opls_865	1	NGb	H1V	3	0.0	1.0080
6251	opls_866	1	NGb	H1W	3	0.0	1.0080
6252	opls_867	1	NGb	H1X	3	0.0	1.0080
6253	opls_868	1	NGb	H1Y	3	0.0	1.0080
6254	opls_869	1	NGb	H1Z	3	0.0	1.0080
6255	opls_new	1	NGb	DUM	1	0.0	1.0
6256	opls_871	1	NGb	H21	3	0.0	1.0080
6257	opls_872	1	NGb	H22	3	0.0	1.0080
6258	opls_873	1	NGb	H23	3	0.0	1.0080
6259	opls_874	1	NGb	H24	3	0.0	1.0080
6260	opls_875	1	NGb	H25	3	0.0	1.0080
6261	opls_876	1	NGb	H26	3	0.0	1.0080
6262	opls_877	1	NGb	H27	3	0.0	1.0080
6263	opls_878	1	NGb	H28	3	0.0	1.0080
6264	opls_879	1	NGb	H29	3	0.0	1.0080
6265	opls_880	1	NGb	H2A	3	0.0	1.0080
6266	opls_881	1	NGb	H2B	3	0.0	1.0080
6267	opls_882	1	NGb	H2C	3	0.0	1.0080
6268	opls_883	1	NGb	H2D	3	0.0	1.0080
6269	opls_884	1	NGb	H2E	3	0.0	1.0080
6270	opls_885	1	NGb	H2F	3	0.0	1.0080
6271	opls_886	1	NGb	H2G	3	0.0	1.0080
6272	opls_887	1	NGb	H2H	3	0.0	1.0080
6273	opls_888	1	NGb	H2I	3	0.0	1.0080
6274	opls_889	1	NGb	H2J	3	0.0	1.0080
6275	opls_890	1	NGb	H2K	3	0.0	1.0080
6276	opls_891	1	NGb	H2M	3	0.0	1.0080
6277	opls_892	1	NGb	H2N	3	0.0	1.0080
6278	opls_893	1	NGb	H2O	3	0.0	1.0080
6279	opls_894	1	NGb	H2P	3	0.0	1.0080
6280	opls_895	1	NGb	H2Q	3	0.0	1.0080
6281	opls_896	1	NGb	H2R	3	0.0	1.0080
6282	opls_897	1	NGb	H2S	3	0.0	1.0080
6283	opls_898	1	NGb	H2T	4	0.0	1.0080
6284	opls_899	1	NGb	H2U	4	0.0	1.0080
6285	opls_800	1	NGb	C00	1	0.0	12.0110
6286	opls_801	1	NGb	N01	1	0.0	14.0070
6287	opls_802	1	NGb	C02	1	0.0	12.0110
6288	opls_803	1	NGb	C03	1	0.0	12.0110
6289	opls_804	1	NGb	O04	1	0.0	15.9990
6290	opls_805	1	NGb	C05	1	0.0	12.0110
6291	opls_806	1	NGb	C06	1	0.0	12.0110
6292	opls_807	1	NGb	C07	1	0.0	12.0110
6293	opls_808	1	NGb	C08	1	0.0	12.0110
6294	opls_809	1	NGb	C09	1	0.0	12.0110
6295	opls_810	1	NGb	C0A	1	0.0	12.0110
6296	opls_811	1	NGb	C0B	1	0.0	12.0110
6297	opls_812	1	NGb	C0C	1	0.0	12.0110
6298	opls_new	1	NGb	DUM	1	0.0	1.0
6299	opls_814	1	NGb	C0E	1	0.0	12.0110
6300	opls_815	1	NGb	C0F	1	0.0	12.0110
6301	opls_816	1	NGb	C0G	1	0.0	12.0110
6302	opls_817	1	NGb	C0H	1	0.0	12.0110
6303	opls_818	1	NGb	C0I	1	0.0	12.0110
6304	opls_819	1	NGb	C0J	1	0.0	12.0110
6305	opls_820	1	NGb	C0K	1	0.0	12.0110
6306	opls_821	1	NGb	C0M	1	0.0	12.0110
6307	opls_822	1	NGb	C0N	1	0.0	12.0110
6308	opls_823	1	NGb	C0O	1	0.0	12.0110
6309	opls_824	1	NGb	C0P	1	0.0	12.0110
6310	opls_825	1	NGb	C0Q	1	0.0	12.0110
6311	opls_826	1	NGb	C0R	1	0.0	12.0110
6312	opls_827	1	NGb	C0S	1	0.0	12.0110
6313	opls_828	1	NGb	C0T	1	0.0	12.0110
6314	opls_829	1	NGb	C0U	1	0.0	12.0110
6315	opls_830	1	NGb	C0V	1	0.0	12.0110
6316	opls_831	1	NGb	C0W	1	0.0	12.0110
6317	opls_832	1	NGb	C0X	2	0.0	12.0110
6318	opls_833	1	NGb	N0Y	2	0.0	14.0070
6319	opls_834	1	NGb	C0Z	2	0.0	12.0110
6320	opls_835	1	NGb	C10	2	0.0	12.0110
6321	opls_836	1	NGb	C11	2	0.0	12.0110
6322	opls_837	1	NGb	N12	2	0.0	14.0070
6323	opls_838	1	NGb	C13	2	0.0	12.0110
6324	opls_839	1	NGb	N14	2	0.0	14.0070
6325	opls_840	1	NGb	O15	2	0.0	15.9990
6326	opls_841	1	NGb	C16	2	0.0	12.0110
6327	opls_842	1	NGb	C17	2	0.0	12.0110
6328	opls_843	1	NGb	C18	2	0.0	12.0110
6329	opls_844	1	NGb	C19	2	0.0	12.0110
6330	opls_845	1	NGb	C1A	2	0.0	12.0110
6331	opls_846	1	NGb	C1B	2	0.0	12.0110
6332	opls_847	1	NGb	C1C	2	0.0	12.0110
6333	opls_848	1	NGb	C1D	2	0.0	12.0110
6334	opls_849	1	NGb	F1E	2	0.0	18.9984
6335	opls_850	1	NGb	F1F	2	0.0	18.9984
6336	opls_851	1	NGb	F1G	2	0.0	18.9984
6337	opls_852	1	NGb	C1H	2	0.0	12.0110
6338	opls_853	1	NGb	C1I	2	0.0	12.0110
6339	opls_854	1	NGb	C1J	2	0.0	12.0110
6340	opls_855	1	NGb	C1K	2	0.0	12.0110
6341	opls_856	1	NGb	C1M	2	0.0	12.0110
6342	opls_857	1	NGb	C1N	2	0.0	12.0110
6343	opls_858	1	NGb	C1O	2	0.0	12.0110
6344	opls_859	1	NGb	H1P	2	0.0	1.0080
6345	opls_860	1	NGb	H1Q	2	0.0	1.0080
6346	opls_861	1	NGb	H1R	2	0.0	1.0080
6347	opls_862	1	NGb	H1S	2	0.0	1.0080
6348	opls_863	1	NGb	H1T	2	0.0	1.0080
6349	opls_864	1	NGb	H1U	2	0.0	1.0080
6350	opls_865	1	NGb	H1V	3	0.0	1.0080
6351	opls_866	1	NGb	H1W	3	0.0	1.0080
6352	opls_867	1	NGb	H1X	3	0.0	1.0080
6353	opls_868	1	NGb	H1Y	3	0.0	1.0080
6354	opls_869	1	NGb	H1Z	3	0.0	1.0080
6355	opls_new	1	NGb	DUM	1	0.0	1.0
6356	opls_871	1	NGb	H21	3	0.0	1.0080
6357	opls_872	1	NGb	H22	3	0.0	1.0080
6358	opls_873	1	NGb	H23	3	0.0	1.0080
6359	opls_874	1	NGb	H24	3	0.0	1.0080
6360	opls_875	1	NGb	H25	3	0.0	1.0080
6361	opls_876	1	NGb	H26	3	0.0	1.0080
6362	opls_877	1	NGb	H27	3	0.0	1.0080
6363	opls_878	1	NGb	H28	3	0.0	1.0080
6364	opls_879	1	NGb	H29	3	0.0	1.0080
6365	opls_880	1	NGb	H2A	3	0.0	1.0080
6366	opls_881	1	NGb	H2B	3	0.0	1.0080
6367	opls_882	1	NGb	H2C	3	0.0	1.0080
6368	opls_883	1	NGb	H2D	3	0.0	1.0080
6369	opls_884	1	NGb	H2E	3	0.0	1.0080
6370	opls_885	1	NGb	H2F	3	0.0	1.0080
6371	opls_886	1	NGb	H2G	3	0.0	1.0080
6372	opls_887	1	NGb	H2H	3	0.0	1.0080
6373	opls_888	1	NGb	H2I	3	0.0	1.0080
6374	opls_889	1	NGb	H2J	3	0.0	1.0080
6375	opls_890	1	NGb	H2K	3	0.0	1.0080
6376	opls_891	1	NGb	H2M	3	0.0	1.0080
6377	opls_892	1	NGb	H2N	3	0.0	1.0080
6378	opls_893	1	NGb	H2O	3	0.0	1.0080
6379	opls_894	1	NGb	H2P	3	0.0	1.0080
6380	opls_895	1	NGb	H2Q	3	0.0	1.0080
6381	opls_896	1	NGb	H2R	3	0.0	1.0080
6382	opls_897	1	NGb	H2S	3	0.0	1.0080
6383	opls_898	1	NGb	H2T	4	0.0	1.0080
6384	opls_899	1	NGb	H2U	4	0.0	1.0080
6385	opls_800	1	NGb	C00	1	0.0	12.0110
6386	opls_801	1	NGb	N01	1	0.0	14.0070
6387	opls_802	1	NGb	C02	1	0.0	12.0110
6388	opls_803	1	NGb	C03	1	0.0	12.0110
6389	opls_804	1	NGb	O04	1	0.0	15.9990
6390	opls_805	1	NGb	C05	1	0.0	12.0110
6391	opls_806	1	NGb	C06	1	0.0	12.0110
6392	opls_807	1	NGb	C07	1	0.0	12.0110
6393	opls_808	1	NGb	C08	1	0.0	12.0110
6394	opls_809	1	NGb	C09	1	0.0	12.0110
6395	opls_810	1	NGb	C0A	1	0.0	12.0110
6396	opls_811	1	NGb	C0B	1	0.0	12.0110
6397	opls_812	1	NGb	C0C	1	0.0	12.0110
6398	opls_new	1	NGb	DUM	1	0.0	1.0
6399	opls_814	1	NGb	C0E	1	0.0	12.0110
6400	opls_815	1	NGb	C0F	1	0.0	12.0110
6401	opls_816	1	NGb	C0G	1	0.0	12.0110
6402	opls_817	1	NGb	C0H	1	0.0	12.0110
6403	opls_818	1	NGb	C0I	1	0.0	12.0110
6404	opls_819	1	NGb	C0J	1	0.0	12.0110
6405	opls_820	1	NGb	C0K	1	0.0	12.0110
6406	opls_821	1	NGb	C0M	1	0.0	12.0110
6407	opls_822	1	NGb	C0N	1	0.0	12.0110
6408	opls_823	1	NGb	C0O	1	0.0	12.0110
6409	opls_824	1	NGb	C0P	1	0.0	12.0110
6410	opls_825	1	NGb	C0Q	1	0.0	12.0110
6411	opls_826	1	NGb	C0R	1	0.0	12.0110
6412	opls_827	1	NGb	C0S	1	0.0	12.0110
6413	opls_828	1	NGb	C0T	1	0.0	12.0110
6414	opls_829	1	NGb	C0U	1	0.0	12.0110
6415	opls_830	1	NGb	C0V	1	0.0	12.0110
6416	opls_831	1	NGb	C0W	1	0.0	12.0110
6417	opls_832	1	NGb	C0X	2	0.0	12.0110
6418	opls_833	1	NGb	N0Y	2	0.0	14.0070
6419	opls_834	1	NGb	C0Z	2	0.0	12.0110
6420	opls_835	1	NGb	C10	2	0.0	12.0110
6421	opls_836	1	NGb	C11	2	0.0	12.0110
6422	opls_837	1	NGb	N12	2	0.0	14.0070
6423	opls_838	1	NGb	C13	2	0.0	12.0110
6424	opls_839	1	NGb	N14	2	0.0	14.0070
6425	opls_840	1	NGb	O15	2	0.0	15.9990
6426	opls_841	1	NGb	C16	2	0.0	12.0110
6427	opls_842	1	NGb	C17	2	0.0	12.0110
6428	opls_843	1	NGb	C18	2	0.0	12.0110
6429	opls_844	1	NGb	C19	2	0.0	12.0110
6430	opls_845	1	NGb	C1A	2	0.0	12.0110
6431	opls_846	1	NGb	C1B	2	0.0	12.0110
6432	opls_847	1	NGb	C1C	2	0.0	12.0110
6433	opls_848	1	NGb	C1D	2	0.0	12.0110
6434	opls_849	1	NGb	F1E	2	0.0	18.9984
6435	opls_850	1	NGb	F1F	2	0.0	18.9984
6436	opls_851	1	NGb	F1G	2	0.0	18.9984
6437	opls_852	1	NGb	C1H	2	0.0	12.0110
6438	opls_853	1	NGb	C1I	2	0.0	12.0110
6439	opls_854	1	NGb	C1J	2	0.0	12.0110
6440	opls_855	1	NGb	C1K	2	0.0	12.0110
6441	opls_856	1	NGb	C1M	2	0.0	12.0110
6442	opls_857	1	NGb	C1N	2	0.0	12.0110
6443	opls_858	1	NGb	C1O	2	0.0	12.0110
6444	opls_859	1	NGb	H1P	2	0.0	1.0080
6445	opls_860	1	NGb	H1Q	2	0.0	1.0080
6446	opls_861	1	NGb	H1R	2	0.0	1.0080
6447	opls_862	1	NGb	H1S	2	0.0	1.0080
6448	opls_863	1	NGb	H1T	2	0.0	1.0080
6449	opls_864	1	NGb	H1U	2	0.0	1.0080
6450	opls_865	1	NGb	H1V	3	0.0	1.0080
6451	opls_866	1	NGb	H1W	3	0.0	1.0080
6452	opls_867	1	NGb	H1X	3	0.0	1.0080
6453	opls_868	1	NGb	H1Y	3	0.0	1.0080
6454	opls_869	1	NGb	H1Z	3	0.0	1.0080
6455	opls_new	1	NGb	DUM	1	0.0	1.0
6456	opls_871	1	NGb	H21	3	0.0	1.0080
6457	opls_872	1	NGb	H22	3	0.0	1.0080
6458	opls_873	1	NGb	H23	3	0.0	1.0080
6459	opls_874	1	NGb	H24	3	0.0	1.0080
6460	opls_875	1	NGb	H25	3	0.0	1.0080
6461	opls_876	1	NGb	H26	3	0.0	1.0080
6462	opls_877	1	NGb	H27	3	0.0	1.0080
6463	opls_878	1	NGb	H28	3	0.0	1.0080
6464	opls_879	1	NGb	H29	3	0.0	1.0080
6465	opls_880	1	NGb	H2A	3	0.0	1.0080
6466	opls_881	1	NGb	H2B	3	0.0	1.0080
6467	opls_882	1	NGb	H2C	3	0.0	1.0080
6468	opls_883	1	NGb	H2D	3	0.0	1.0080
6469	opls_884	1	NGb	H2E	3	0.0	1.0080
6470	opls_885	1	NGb	H2F	3	0.0	1.0080
6471	opls_886	1	NGb	H2G	3	0.0	1.0080
6472	opls_887	1	NGb	H2H	3	0.0	1.0080
6473	opls_888	1	NGb	H2I	3	0.0	1.0080
6474	opls_889	1	NGb	H2J	3	0.0	1.0080
6475	opls_890	1	NGb	H2K	3	0.0	1.0080
6476	opls_891	1	NGb	H2M	3	0.0	1.0080
6477	opls_892	1	NGb	H2N	3	0.0	1.0080
6478	opls_893	1	NGb	H2O	3	0.0	1.0080
6479	opls_894	1	NGb	H2P	3	0.0	1.0080
6480	opls_895	1	NGb	H2Q	3	0.0	1.0080
6481	opls_896	1	NGb	H2R	3	0.0	1.0080
6482	opls_897	1	NGb	H2S	3	0.0	1.0080
6483	opls_898	1	NGb	H2T	4	0.0	1.0080
6484	opls_899	1	NGb	H2U	4	0.0	1.0080
6485	opls_800	1	NGb	C00	1	0.0	12.0110
6486	opls_801	1	NGb	N01	1	0.0	14.0070
6487	opls_802	1	NGb	C02	1	0.0	12.0110
6488	opls_803	1	NGb	C03	1	0.0	12.0110
6489	opls_804	1	NGb	O04	1	0.0	15.9990
6490	opls_805	1	NGb	C05	1	0.0	12.0110
6491	opls_806	1	NGb	C06	1	0.0	12.0110
6492	opls_807	1	NGb	C07	1	0.0	12.0110
6493	opls_808	1	NGb	C08	1	0.0	12.0110
6494	opls_809	1	NGb	C09	1	0.0	12.0110
6495	opls_810	1	NGb	C0A	1	0.0	12.0110
6496	opls_811	1	NGb	C0B	1	0.0	12.0110
6497	opls_812	1	NGb	C0C	1	0.0	12.0110
6498	opls_new	1	NGb	DUM	1	0.0	1.0
6499	opls_814	1	NGb	C0E	1	0.0	12.0110
6500	opls_815	1	NGb	C0F	1	0.0	12.0110
6501	opls_816	1	NGb	C0G	1	0.0	12.0110
6502	opls_817	1	NGb	C0H	1	0.0	12.0110
6503	opls_818	1	NGb	C0I	1	0.0	12.0110
6504	opls_819	1	NGb	C0J	1	0.0	12.0110
6505	opls_820	1	NGb	C0K	1	0.0	12.0110
6506	opls_821	1	NGb	C0M	1	0.0	12.0110
6507	opls_822	1	NGb	C0N	1	0.0	12.0110
6508	opls_823	1	NGb	C0O	1	0.0	12.0110
6509	opls_824	1	NGb	C0P	1	0.0	12.0110
6510	opls_825	1	NGb	C0Q	1	0.0	12.0110
6511	opls_826	1	NGb	C0R	1	0.0	12.0110
6512	opls_827	1	NGb	C0S	1	0.0	12.0110
6513	opls_828	1	NGb	C0T	1	0.0	12.0110
6514	opls_829	1	NGb	C0U	1	0.0	12.0110
6515	opls_830	1	NGb	C0V	1	0.0	12.0110
6516	opls_831	1	NGb	C0W	1	0.0	12.0110
6517	opls_832	1	NGb	C0X	2	0.0	12.0110
6518	opls_833	1	NGb	N0Y	2	0.0	14.0070
6519	opls_834	1	NGb	C0Z	2	0.0	12.0110
6520	opls_835	1	NGb	C10	2	0.0	12.0110
6521	opls_836	1	NGb	C11	2	0.0	12.0110
6522	opls_837	1	NGb	N12	2	0.0	14.0070
6523	opls_838	1	NGb	C13	2	0.0	12.0110
6524	opls_839	1	NGb	N14	2	0.0	14.0070
6525	opls_840	1	NGb	O15	2	0.0	15.9990
6526	opls_841	1	NGb	C16	2	0.0	12.0110
6527	opls_842	1	NGb	C17	2	0.0	12.0110
6528	opls_843	1	NGb	C18	2	0.0	12.0110
6529	opls_844	1	NGb	C19	2	0.0	12.0110
6530	opls_845	1	NGb	C1A	2	0.0	12.0110
6531	opls_846	1	NGb	C1B	2	0.0	12.0110
6532	opls_847	1	NGb	C1C	2	0.0	12.0110
6533	opls_848	1	NGb	C1D	2	0.0	12.0110
6534	opls_849	1	NGb	F1E	2	0.0	18.9984
6535	opls_850	1	NGb	F1F	2	0.0	18.9984
6536	opls_851	1	NGb	F1G	2	0.0	18.9984
6537	opls_852	1	NGb	C1H	2	0.0	12.0110
6538	opls_853	1	NGb	C1I	2	0.0	12.0110
6539	opls_854	1	NGb	C1J	2	0.0	12.0110
6540	opls_855	1	NGb	C1K	2	0.0	12.0110
6541	opls_856	1	NGb	C1M	2	0.0	12.0110
6542	opls_857	1	NGb	C1N	2	0.0	12.0110
6543	opls_858	1	NGb	C1O	2	0.0	12.0110
6544	opls_859	1	NGb	H1P	2	0.0	1.0080
6545	opls_860	1	NGb	H1Q	2	0.0	1.0080
6546	opls_861	1	NGb	H1R	2	0.0	1.0080
6547	opls_862	1	NGb	H1S	2	0.0	1.0080
6548	opls_863	1	NGb	H1T	2	0.0	1.0080
6549	opls_864	1	NGb	H1U	2	0.0	1.0080
6550	opls_865	1	NGb	H1V	3	0.0	1.0080
6551	opls_866	1	NGb	H1W	3	0.0	1.0080
6552	opls_867	1	NGb	H1X	3	0.0	1.0080
6553	opls_868	1	NGb	H1Y	3	0.0	1.0080
6554	opls_869	1	NGb	H1Z	3	0.0	1.0080
6555	opls_new	1	NGb	DUM	1	0.0	1.0
6556	opls_871	1	NGb	H21	3	0.0	1.0080
6557	opls_872	1	NGb	H22	3	0.0	1.0080
6558	opls_873	1	NGb	H23	3	0.0	1.0080
6559	opls_874	1	NGb	H24	3	0.0	1.0080
6560	opls_875	1	NGb	H25	3	0.0	1.0080
6561	opls_876	1	NGb	H26	3	0.0	1.0080
6562	opls_877	1	NGb	H27	3	0.0	1.0080
6563	opls_878	1	NGb	H28	3	0.0	1.0080
6564	opls_879	1	NGb	H29	3	0.0	1.0080
6565	opls_880	1	NGb	H2A	3	0.0	1.0080
6566	opls_881	1	NGb	H2B	3	0.0	1.0080
6567	opls_882	1	NGb	H2C	3	0.0	1.0080
6568	opls_883	1	NGb	H2D	3	0.0	1.0080
6569	opls_884	1	NGb	H2E	3	0.0	1.0080
6570	opls_885	1	NGb	H2F	3	0.0	1.0080
6571	opls_886	1	NGb	H2G	3	0.0	1.0080
6572	opls_887	1	NGb	H2H	3	0.0	1.0080
6573	opls_888	1	NGb	H2I	3	0.0	1.0080
6574	opls_889	1	NGb	H2J	3	0.0	1.0080
6575	opls_890	1	NGb	H2K	3	0.0	1.0080
6576	opls_891	1	NGb	H2M	3	0.0	1.0080
6577	opls_892	1	NGb	H2N	3	0.0	1.0080
6578	opls_893	1	NGb	H2O	3	0.0	1.0080
6579	opls_894	1	NGb	H2P	3	0.0	1.0080
6580	opls_895	1	NGb	H2Q	3	0.0	1.0080
6581	opls_896	1	NGb	H2R	3	0.0	1.0080
6582	opls_897	1	NGb	H2S	3	0.0	1.0080
6583	opls_898	1	NGb	H2T	4	0.0	1.0080
6584	opls_899	1	NGb	H2U	4	0.0	1.0080
6585	opls_800	1	NGb	C00	1	0.0	12.0110
6586	opls_801	1	NGb	N01	1	0.0	14.0070
6587	opls_802	1	NGb	C02	1	0.0	12.0110
6588	opls_803	1	NGb	C03	1	0.0	12.0110
6589	opls_804	1	NGb	O04	1	0.0	15.9990
6590	opls_805	1	NGb	C05	1	0.0	12.0110
6591	opls_806	1	NGb	C06	1	0.0	12.0110
6592	opls_807	1	NGb	C07	1	0.0	12.0110
6593	opls_808	1	NGb	C08	1	0.0	12.0110
6594	opls_809	1	NGb	C09	1	0.0	12.0110
6595	opls_810	1	NGb	C0A	1	0.0	12.0110
6596	opls_811	1	NGb	C0B	1	0.0	12.0110
6597	opls_812	1	NGb	C0C	1	0.0	12.0110
6598	opls_new	1	NGb	DUM	1	0.0	1.0
6599	opls_814	1	NGb	C0E	1	0.0	12.0110
6600	opls_815	1	NGb	C0F	1	0.0	12.0110
6601	opls_816	1	NGb	C0G	1	0.0	12.0110
6602	opls_817	1	NGb	C0H	1	0.0	12.0110
6603	opls_818	1	NGb	C0I	1	0.0	12.0110
6604	opls_819	1	NGb	C0J	1	0.0	12.0110
6605	opls_820	1	NGb	C0K	1	0.0	12.0110
6606	opls_821	1	NGb	C0M	1	0.0	12.0110
6607	opls_822	1	NGb	C0N	1	0.0	12.0110
6608	opls_823	1	NGb	C0O	1	0.0	12.0110
6609	opls_824	1	NGb	C0P	1	0.0	12.0110
6610	opls_825	1	NGb	C0Q	1	0.0	12.0110
6611	opls_826	1	NGb	C0R	1	0.0	12.0110
6612	opls_827	1	NGb	C0S	1	0.0	12.0110
6613	opls_828	1	NGb	C0T	1	0.0	12.0110
6614	opls_829	1	NGb	C0U	1	0.0	12.0110
6615	opls_830	1	NGb	C0V	1	0.0	12.0110
6616	opls_831	1	NGb	C0W	1	0.0	12.0110
6617	opls_832	1	NGb	C0X	2	0.0	12.0110
6618	opls_833	1	NGb	N0Y	2	0.0	14.0070
6619	opls_834	1	NGb	C0Z	2	0.0	12.0110
6620	opls_835	1	NGb	C10	2	0.0	12.0110
6621	opls_836	1	NGb	C11	2	0.0	12.0110
6622	opls_837	1	NGb	N12	2	0.0	14.0070
6623	opls_838	1	NGb	C13	2	0.0	12.0110
6624	opls_839	1	NGb	N14	2	0.0	14.0070
6625	opls_840	1	NGb	O15	2	0.0	15.9990
6626	opls_841	1	NGb	C16	2	0.0	12.0110
6627	opls_842	1	NGb	C17	2	0.0	12.0110
6628	opls_843	1	NGb	C18	2	0.0	12.0110
6629	opls_844	1	NGb	C19	2	0.0	12.0110
6630	opls_845	1	NGb	C1A	2	0.0	12.0110
6631	opls_846	1	NGb	C1B	2	0.0	12.0110
6632	opls_847	1	NGb	C1C	2	0.0	12.0110
6633	opls_848	1	NGb	C1D	2	0.0	12.0110
6634	opls_849	1	NGb	F1E	2	0.0	18.9984
6635	opls_850	1	NGb	F1F	2	0.0	18.9984
6636	opls_851	1	NGb	F1G	2	0.0	18.9984
6637	opls_852	1	NGb	C1H	2	0.0	12.0110
6638	opls_853	1	NGb	C1I	2	0.0	12.0110
6639	opls_854	1	NGb	C1J	2	0.0	12.0110
6640	opls_855	1	NGb	C1K	2	0.0	12.0110
6641	opls_856	1	NGb	C1M	2	0.0	12.0110
6642	opls_857	1	NGb	C1N	2	0.0	12.0110
6643	opls_858	1	NGb	C1O	2	0.0	12.0110
6644	opls_859	1	NGb	H1P	2	0.0	1.0080
6645	opls_860	1	NGb	H1Q	2	0.0	1.0080
6646	opls_861	1	NGb	H1R	2	0.0	1.0080
6647	opls_862	1	NGb	H1S	2	0.0	1.0080
6648	opls_863	1	NGb	H1T	2	0.0	1.0080
6649	opls_864	1	NGb	H1U	2	0.0	1.0080
6650	opls_865	1	NGb	H1V	3	0.0	1.0080
6651	opls_866	1	NGb	H1W	3	0.0	1.0080
6652	opls_867	1	NGb	H1X	3	0.0	1.0080
6653	opls_868	1	NGb	H1Y	3	0.0	1.0080
6654	opls_869	1	NGb	H1Z	3	0.0	1.0080
6655	opls_new	1	NGb	DUM	1	0.0	1.0
6656	opls_871	1	NGb	H21	3	0.0	1.0080
6657	opls_872	1	NGb	H22	3	0.0	1.0080
6658	opls_873	1	NGb	H23	3	0.0	1.0080
6659	opls_874	1	NGb	H24	3	0.0	1.0080
6660	opls_875	1	NGb	H25	3	0.0	1.0080
6661	opls_876	1	NGb	H26	3	0.0	1.0080
6662	opls_877	1	NGb	H27	3	0.0	1.0080
6663	opls_878	1	NGb	H28	3	0.0	1.0080
6664	opls_879	1	NGb	H29	3	0.0	1.0080
6665	opls_880	1	NGb	H2A	3	0.0	1.0080
6666	opls_881	1	NGb	H2B	3	0.0	1.0080
6667	opls_882	1	NGb	H2C	3	0.0	1.0080
6668	opls_883	1	NGb	H2D	3	0.0	1.0080
6669	opls_884	1	NGb	H2E	3	0.0	1.0080
6670	opls_885	1	NGb	H2F	3	0.0	1.0080
6671	opls_886	1	NGb	H2G	3	0.0	1.0080
6672	opls_887	1	NGb	H2H	3	0.0	1.0080
6673	opls_888	1	NGb	H2I	3	0.0	1.0080
6674	opls_889	1	NGb	H2J	3	0.0	1.0080
6675	opls_890	1	NGb	H2K	3	0.0	1.0080
6676	opls_891	1	NGb	H2M	3	0.0	1.0080
6677	opls_892	1	NGb	H2N	3	0.0	1.0080
6678	opls_893	1	NGb	H2O	3	0.0	1.0080
6679	opls_894	1	NGb	H2P	3	0.0	1.0080
6680	opls_895	1	NGb	H2Q	3	0.0	1.0080
6681	opls_896	1	NGb	H2R	3	0.0	1.0080
6682	opls_897	1	NGb	H2S	3	0.0	1.0080
6683	opls_898	1	NGb	H2T	4	0.0	1.0080
6684	opls_899	1	NGb	H2U	4	0.0	1.0080
6685	opls_800	1	NGb	C00	1	0.0	12.0110
6686	opls_801	1	NGb	N01	1	0.0	14.0070
6687	opls_802	1	NGb	C02	1	0.0	12.0110
6688	opls_803	1	NGb	C03	1	0.0	12.0110
6689	opls_804	1	NGb	O04	1	0.0	15.9990
6690	opls_805	1	NGb	C05	1	0.0	12.0110
6691	opls_806	1	NGb	C06	1	0.0	12.0110
6692	opls_807	1	NGb	C07	1	0.0	12.0110
6693	opls_808	1	NGb	C08	1	0.0	12.0110
6694	opls_809	1	NGb	C09	1	0.0	12.0110
6695	opls_810	1	NGb	C0A	1	0.0	12.0110
6696	opls_811	1	NGb	C0B	1	0.0	12.0110
6697	opls_812	1	NGb	C0C	1	0.0	12.0110
6698	opls_new	1	NGb	DUM	1	0.0	1.0
6699	opls_814	1	NGb	C0E	1	0.0	12.0110
6700	opls_815	1	NGb	C0F	1	0.0	12.0110
6701	opls_816	1	NGb	C0G	1	0.0	12.0110
6702	opls_817	1	NGb	C0H	1	0.0	12.0110
6703	opls_818	1	NGb	C0I	1	0.0	12.0110
6704	opls_819	1	NGb	C0J	1	0.0	12.0110
6705	opls_820	1	NGb	C0K	1	0.0	12.0110
6706	opls_821	1	NGb	C0M	1	0.0	12.0110
6707	opls_822	1	NGb	C0N	1	0.0	12.0110
6708	opls_823	1	NGb	C0O	1	0.0	12.0110
6709	opls_824	1	NGb	C0P	1	0.0	12.0110
6710	opls_825	1	NGb	C0Q	1	0.0	12.0110
6711	opls_826	1	NGb	C0R	1	0.0	12.0110
6712	opls_827	1	NGb	C0S	1	0.0	12.0110
6713	opls_828	1	NGb	C0T	1	0.0	12.0110
6714	opls_829	1	NGb	C0U	1	0.0	12.0110
6715	opls_830	1	NGb	C0V	1	0.0	12.0110
6716	opls_831	1	NGb	C0W	1	0.0	12.0110
6717	opls_832	1	NGb	C0X	2	0.0	12.0110
6718	opls_833	1	NGb	N0Y	2	0.0	14.0070
6719	opls_834	1	NGb	C0Z	2	0.0	12.0110
6720	opls_835	1	NGb	C10	2	0.0	12.0110
6721	opls_836	1	NGb	C11	2	0.0	12.0110
6722	opls_837	1	NGb	N12	2	0.0	14.0070
6723	opls_838	1	NGb	C13	2	0.0	12.0110
6724	opls_839	1	NGb	N14	2	0.0	14.0070
6725	opls_840	1	NGb	O15	2	0.0	15.9990
6726	opls_841	1	NGb	C16	2	0.0	12.0110
6727	opls_842	1	NGb	C17	2	0.0	12.0110
6728	opls_843	1	NGb	C18	2	0.0	12.0110
6729	opls_844	1	NGb	C19	2	0.0	12.0110
6730	opls_845	1	NGb	C1A	2	0.0	12.0110
6731	opls_846	1	NGb	C1B	2	0.0	12.0110
6732	opls_847	1	NGb	C1C	2	0.0	12.0110
6733	opls_848	1	NGb	C1D	2	0.0	12.0110
6734	opls_849	1	NGb	F1E	2	0.0	18.9984
6735	opls_850	1	NGb	F1F	2	0.0	18.9984
6736	opls_851	1	NGb	F1G	2	0.0	18.9984
6737	opls_852	1	NGb	C1H	2	0.0	12.0110
6738	opls_853	1	NGb	C1I	2	0.0	12.0110
6739	opls_854	1	NGb	C1J	2	0.0	12.0110
6740	opls_855	1	NGb	C1K	2	0.0	12.0110
6741	opls_856	1	NGb	C1M	2	0.0	12.0110
6742	opls_857	1	NGb	C1N	2	0.0	12.0110
6743	opls_858	1	NGb	C1O	2	0.0	12.0110
6744	opls_859	1	NGb	H1P	2	0.0	1.0080
6745	opls_860	1	NGb	H1Q	2	0.0	1.0080
6746	opls_861	1	NGb	H1R	2	0.0	1.0080
6747	opls_862	1	NGb	H1S	2	0.0	1.0080
6748	opls_863	1	NGb	H1T	2	0.0	1.0080
6749	opls_864	1	NGb	H1U	2	0.0	1.0080
6750	opls_865	1	NGb	H1V	3	0.0	1.0080
6751	opls_866	1	NGb	H1W	3	0.0	1.0080
6752	opls_867	1	NGb	H1X	3	0.0	1.0080
6753	opls_868	1	NGb	H1Y	3	0.0	1.0080
6754	opls_869	1	NGb	H1Z	3	0.0	1.0080
6755	opls_new	1	NGb	DUM	1	0.0	1.0
6756	opls_871	1	NGb	H21	3	0.0	1.0080
6757	opls_872	1	NGb	H22	3	0.0	1.0080
6758	opls_873	1	NGb	H23	3	0.0	1.0080
6759	opls_874	1	NGb	H24	3	0.0	1.0080
6760	opls_875	1	NGb	H25	3	0.0	1.0080
6761	opls_876	1	NGb	H26	3	0.0	1.0080
6762	opls_877	1	NGb	H27	3	0.0	1.0080
6763	opls_878	1	NGb	H28	3	0.0	1.0080
6764	opls_879	1	NGb	H29	3	0.0	1.0080
6765	opls_880	1	NGb	H2A	3	0.0	1.0080
6766	opls_881	1	NGb	H2B	3	0.0	1.0080
6767	opls_882	1	NGb	H2C	3	0.0	1.0080
6768	opls_883	1	NGb	H2D	3	0.0	1.0080
6769	opls_884	1	NGb	H2E	3	0.0	1.0080
6770	opls_885	1	NGb	H2F	3	0.0	1.0080
6771	opls_886	1	NGb	H2G	3	0.0	1.0080
6772	opls_887	1	NGb	H2H	3	0.0	1.0080
6773	opls_888	1	NGb	H2I	3	0.0	1.0080
6774	opls_889	1	NGb	H2J	3	0.0	1.0080
6775	opls_890	1	NGb	H2K	3	0.0	1.0080
6776	opls_891	1	NGb	H2M	3	0.0	1.0080
6777	opls_892	1	NGb	H2N	3	0.0	1.0080
6778	opls_893	1	NGb	H2O	3	0.0	1.0080
6779	opls_894	1	NGb	H2P	3	0.0	1.0080
6780	opls_895	1	NGb	H2Q	3	0.0	1.0080
6781	opls_896	1	NGb	H2R	3	0.0	1.0080
6782	opls_897	1	NGb	H2S	3	0.0	1.0080
6783	opls_898	1	NGb	H2T	4	0.0	1.0080
6784	opls_899	1	NGb	H2U	4	0.0	1.0080
6785	opls_800	1	NGb	C00	1	0.0	12.0110
6786	opls_801	1	NGb	N01	1	0.0	14.0070
6787	opls_802	1	NGb	C02	1	0.0	12.0110
6788	opls_803	1	NGb	C03	1	0.0	12.0110
6789	opls_804	1	NGb	O04	1	0.0	15.9990
6790	opls_805	1	NGb	C05	1	0.0	12.0110
6791	opls_806	1	NGb	C06	1	0.0	12.0110
6792	opls_807	1	NGb	C07	1	0.0	12.0110
6793	opls_808	1	NGb	C08	1	0.0	12.0110
6794	opls_809	1	NGb	C09	1	0.0	12.0110
6795	opls_810	1	NGb	C0A	1	0.0	12.0110
6796	opls_811	1	NGb	C0B	1	0.0	12.0110
6797	opls_812	1	NGb	C0C	1	0.0	12.0110
6798	opls_new	1	NGb	DUM	1	0.0	1.0
6799	opls_814	1	NGb	C0E	1	0.0	12.0110
6800	opls_815	1	NGb	C0F	1	0.0	12.0110
6801	opls_816	1	NGb	C0G	1	0.0	12.0110
6802	opls_817	1	NGb	C0H	1	0.0	12.0110
6803	opls_818	1	NGb	C0I	1	0.0	12.0110
6804	opls_819	1	NGb	C0J	1	0.0	12.0110
6805	opls_820	1	NGb	C0K	1	0.0	12.0110
6806	opls_821	1	NGb	C0M	1	0.0	12.0110
6807	opls_822	1	NGb	C0N	1	0.0	12.0110
6808	opls_823	1	NGb	C0O	1	0.0	12.0110
6809	opls_824	1	NGb	C0P	1	0.0	12.0110
6810	opls_825	1	NGb	C0Q	1	0.0	12.0110
6811	opls_826	1	NGb	C0R	1	0.0	12.0110
6812	opls_827	1	NGb	C0S	1	0.0	12.0110
6813	opls_828	1	NGb	C0T	1	0.0	12.0110
6814	opls_829	1	NGb	C0U	1	0.0	12.0110
6815	opls_830	1	NGb	C0V	1	0.0	12.0110
6816	opls_831	1	NGb	C0W	1	0.0	12.0110
6817	opls_832	1	NGb	C0X	2	0.0	12.0110
6818	opls_833	1	NGb	N0Y	2	0.0	14.0070
6819	opls_834	1	NGb	C0Z	2	0.0	12.0110
6820	opls_835	1	NGb	C10	2	0.0	12.0110
6821	opls_836	1	NGb	C11	2	0.0	12.0110
6822	opls_837	1	NGb	N12	2	0.0	14.0070
6823	opls_838	1	NGb	C13	2	0.0	12.0110
6824	opls_839	1	NGb	N14	2	0.0	14.0070
6825	opls_840	1	NGb	O15	2	0.0	15.9990
6826	opls_841	1	NGb	C16	2	0.0	12.0110
6827	opls_842	1	NGb	C17	2	0.0	12.0110
6828	opls_843	1	NGb	C18	2	0.0	12.0110
6829	opls_844	1	NGb	C19	2	0.0	12.0110
6830	opls_845	1	NGb	C1A	2	0.0	12.0110
6831	opls_846	1	NGb	C1B	2	0.0	12.0110
6832	opls_847	1	NGb	C1C	2	0.0	12.0110
6833	opls_848	1	NGb	C1D	2	0.0	12.0110
6834	opls_849	1	NGb	F1E	2	0.0	18.9984
6835	opls_850	1	NGb	F1F	2	0.0	18.9984
6836	opls_851	1	NGb	F1G	2	0.0	18.9984
6837	opls_852	1	NGb	C1H	2	0.0	12.0110
6838	opls_853	1	NGb	C1I	2	0.0	12.0110
6839	opls_854	1	NGb	C1J	2	0.0	12.0110
6840	opls_855	1	NGb	C1K	2	0.0	12.0110
6841	opls_856	1	NGb	C1M	2	0.0	12.0110
6842	opls_857	1	NGb	C1N	2	0.0	12.0110
6843	opls_858	1	NGb	C1O	2	0.0	12.0110
6844	opls_859	1	NGb	H1P	2	0.0	1.0080
6845	opls_860	1	NGb	H1Q	2	0.0	1.0080
6846	opls_861	1	NGb	H1R	2	0.0	1.0080
6847	opls_862	1	NGb	H1S	2	0.0	1.0080
6848	opls_863	1	NGb	H1T	2	0.0	1.0080
6849	opls_864	1	NGb	H1U	2	0.0	1.0080
6850	opls_865	1	NGb	H1V	3	0.0	1.0080
6851	opls_866	1	NGb	H1W	3	0.0	1.0080
6852	opls_867	1	NGb	H1X	3	0.0	1.0080
6853	opls_868	1	NGb	H1Y	3	0.0	1.0080
6854	opls_869	1	NGb	H1Z	3	0.0	1.0080
6855	opls_new	1	NGb	DUM	1	0.0	1.0
6856	opls_871	1	NGb	H21	3	0.0	1.0080
6857	opls_872	1	NGb	H22	3	0.0	1.0080
6858	opls_873	1	NGb	H23	3	0.0	1.0080
6859	opls_874	1	NGb	H24	3	0.0	1.0080
6860	opls_875	1	NGb	H25	3	0.0	1.0080
6861	opls_876	1	NGb	H26	3	0.0	1.0080
6862	opls_877	1	NGb	H27	3	0.0	1.0080
6863	opls_878	1	NGb	H28	3	0.0	1.0080
6864	opls_879	1	NGb	H29	3	0.0	1.0080
6865	opls_880	1	NGb	H2A	3	0.0	1.0080
6866	opls_881	1	NGb	H2B	3	0.0	1.0080
6867	opls_882	1	NGb	H2C	3	0.0	1.0080
6868	opls_883	1	NGb	H2D	3	0.0	1.0080
6869	opls_884	1	NGb	H2E	3	0.0	1.0080
6870	opls_885	1	NGb	H2F	3	0.0	1.0080
6871	opls_886	1	NGb	H2G	3	0.0	1.0080
6872	opls_887	1	NGb	H2H	3	0.0	1.0080
6873	opls_888	1	NGb	H2I	3	0.0	1.0080
6874	opls_889	1	NGb	H2J	3	0.0	1.0080
6875	opls_890	1	NGb	H2K	3	0.0	1.0080
6876	opls_891	1	NGb	H2M	3	0.0	1.0080
6877	opls_892	1	NGb	H2N	3	0.0	1.0080
6878	opls_893	1	NGb	H2O	3	0.0	1.0080
6879	opls_894	1	NGb	H2P	3	0.0	1.0080
6880	opls_895	1	NGb	H2Q	3	0.0	1.0080
6881	opls_896	1	NGb	H2R	3	0.0	1.0080
6882	opls_897	1	NGb	H2S	3	0.0	1.0080
6883	opls_898	1	NGb	H2T	4	0.0	1.0080
6884	opls_899	1	NGb	H2U	4	0.0	1.0080
6885	opls_800	1	NGb	C00	1	0.0	12.0110
6886	opls_801	1	NGb	N01	1	0.0	14.0070
6887	opls_802	1	NGb	C02	1	0.0	12.0110
6888	opls_803	1	NGb	C03	1	0.0	12.0110
6889	opls_804	1	NGb	O04	1	0.0	15.9990
6890	opls_805	1	NGb	C05	1	0.0	12.0110
6891	opls_806	1	NGb	C06	1	0.0	12.0110
6892	opls_807	1	NGb	C07	1	0.0	12.0110
6893	opls_808	1	NGb	C08	1	0.0	12.0110
6894	opls_809	1	NGb	C09	1	0.0	12.0110
6895	opls_810	1	NGb	C0A	1	0.0	12.0110
6896	opls_811	1	NGb	C0B	1	0.0	12.0110
6897	opls_812	1	NGb	C0C	1	0.0	12.0110
6898	opls_new	1	NGb	DUM	1	0.0	1.0
6899	opls_814	1	NGb	C0E	1	0.0	12.0110
6900	opls_815	1	NGb	C0F	1	0.0	12.0110
6901	opls_816	1	NGb	C0G	1	0.0	12.0110
6902	opls_817	1	NGb	C0H	1	0.0	12.0110
6903	opls_818	1	NGb	C0I	1	0.0	12.0110
6904	opls_819	1	NGb	C0J	1	0.0	12.0110
6905	opls_820	1	NGb	C0K	1	0.0	12.0110
6906	opls_821	1	NGb	C0M	1	0.0	12.0110
6907	opls_822	1	NGb	C0N	1	0.0	12.0110
6908	opls_823	1	NGb	C0O	1	0.0	12.0110
6909	opls_824	1	NGb	C0P	1	0.0	12.0110
6910	opls_825	1	NGb	C0Q	1	0.0	12.0110
6911	opls_826	1	NGb	C0R	1	0.0	12.0110
6912	opls_827	1	NGb	C0S	1	0.0	12.0110
6913	opls_828	1	NGb	C0T	1	0.0	12.0110
6914	opls_829	1	NGb	C0U	1	0.0	12.0110
6915	opls_830	1	NGb	C0V	1	0.0	12.0110
6916	opls_831	1	NGb	C0W	1	0.0	12.0110
6917	opls_832	1	NGb	C0X	2	0.0	12.0110
6918	opls_833	1	NGb	N0Y	2	0.0	14.0070
6919	opls_834	1	NGb	C0Z	2	0.0	12.0110
6920	opls_835	1	NGb	C10	2	0.0	12.0110
6921	opls_836	1	NGb	C11	2	0.0	12.0110
6922	opls_837	1	NGb	N12	2	0.0	14.0070
6923	opls_838	1	NGb	C13	2	0.0	12.0110
6924	opls_839	1	NGb	N14	2	0.0	14.0070
6925	opls_840	1	NGb	O15	2	0.0	15.9990
6926	opls_841	1	NGb	C16	2	0.0	12.0110
6927	opls_842	1	NGb	C17	2	0.0	12.0110
6928	opls_843	1	NGb	C18	2	0.0	12.0110
6929	opls_844	1	NGb	C19	2	0.0	12.0110
6930	opls_845	1	NGb	C1A	2	0.0	12.0110
6931	opls_846	1	NGb	C1B	2	0.0	12.0110
6932	opls_847	1	NGb	C1C	2	0.0	12.0110
6933	opls_848	1	NGb	C1D	2	0.0	12.0110
6934	opls_849	1	NGb	F1E	2	0.0	18.9984
6935	opls_850	1	NGb	F1F	2	0.0	18.9984
6936	opls_851	1	NGb	F1G	2	0.0	18.9984
6937	opls_852	1	NGb	C1H	2	0.0	12.0110
6938	opls_853	1	NGb	C1I	2	0.0	12.0110
6939	opls_854	1	NGb	C1J	2	0.0	12.0110
6940	opls_855	1	NGb	C1K	2	0.0	12.0110
6941	opls_856	1	NGb	C1M	2	0.0	12.0110
6942	opls_857	1	NGb	C1N	2	0.0	12.0110
6943	opls_858	1	NGb	C1O	2	0.0	12.0110
6944	opls_859	1	NGb	H1P	2	0.0	1.0080
6945	opls_860	1	NGb	H1Q	2	0.0	1.0080
6946	opls_861	1	NGb	H1R	2	0.0	1.0080
6947	opls_862	1	NGb	H1S	2	0.0	1.0080
6948	opls_863	1	NGb	H1T	2	0.0	1.0080
6949	opls_864	1	NGb	H1U	2	0.0	1.0080
6950	opls_865	1	NGb	H1V	3	0.0	1.0080
6951	opls_866	1	NGb	H1W	3	0.0	1.0080
6952	opls_867	1	NGb	H1X	3	0.0	1.0080
6953	opls_868	1	NGb	H1Y	3	0.0	1.0080
6954	opls_869	1	NGb	H1Z	3	0.0	1.0080
6955	opls_new	1	NGb	DUM	1	0.0	1.0
6956	opls_871	1	NGb	H21	3	0.0	1.0080
6957	opls_872	1	NGb	H22	3	0.0	1.0080
6958	opls_873	1	NGb	H23	3	0.0	1.0080
6959	opls_874	1	NGb	H24	3	0.0	1.0080
6960	opls_875	1	NGb	H25	3	0.0	1.0080
6961	opls_876	1	NGb	H26	3	0.0	1.0080
6962	opls_877	1	NGb	H27	3	0.0	1.0080
6963	opls_878	1	NGb	H28	3	0.0	1.0080
6964	opls_879	1	NGb	H29	3	0.0	1.0080
6965	opls_880	1	NGb	H2A	3	0.0	1.0080
6966	opls_881	1	NGb	H2B	3	0.0	1.0080
6967	opls_882	1	NGb	H2C	3	0.0	1.0080
6968	opls_883	1	NGb	H2D	3	0.0	1.0080
6969	opls_884	1	NGb	H2E	3	0.0	1.0080
6970	opls_885	1	NGb	H2F	3	0.0	1.0080
6971	opls_886	1	NGb	H2G	3	0.0	1.0080
6972	opls_887	1	NGb	H2H	3	0.0	1.0080
6973	opls_888	1	NGb	H2I	3	0.0	1.0080
6974	opls_889	1	NGb	H2J	3	0.0	1.0080
6975	opls_890	1	NGb	H2K	3	0.0	1.0080
6976	opls_891	1	NGb	H2M	3	0.0	1.0080
6977	opls_892	1	NGb	H2N	3	0.0	1.0080
6978	opls_893	1	NGb	H2O	3	0.0	1.0080
6979	opls_894	1	NGb	H2P	3	0.0	1.0080
6980	opls_895	1	NGb	H2Q	3	0.0	1.0080
6981	opls_896	1	NGb	H2R	3	0.0	1.0080
6982	opls_897	1	NGb	H2S	3	0.0	1.0080
6983	opls_898	1	NGb	H2T	4	0.0	1.0080
6984	opls_899	1	NGb	H2U	4	0.0	1.0080
6985	opls_800	1	NGb	C00	1	0.0	12.0110
6986	opls_801	1	NGb	N01	1	0.0	14.0070
6987	opls_802	1	NGb	C02	1	0.0	12.0110
6988	opls_803	1	NGb	C03	1	0.0	12.0110
6989	opls_804	1	NGb	O04	1	0.0	15.9990
6990	opls_805	1	NGb	C05	1	0.0	12.0110
6991	opls_806	1	NGb	C06	1	0.0	12.0110
6992	opls_807	1	NGb	C07	1	0.0	12.0110
6993	opls_808	1	NGb	C08	1	0.0	12.0110
6994	opls_809	1	NGb	C09	1	0.0	12.0110
6995	opls_810	1	NGb	C0A	1	0.0	12.0110
6996	opls_811	1	NGb	C0B	1	0.0	12.0110
6997	opls_812	1	NGb	C0C	1	0.0	12.0110
6998	opls_new	1	NGb	DUM	1	0.0	1.0
6999	opls_814	1	NGb	C0E	1	0.0	12.0110
7000	opls_815	1	NGb	C0F	1	0.0	12.0110
7001	opls_816	1	NGb	C0G	1	0.0	12.0110
7002	opls_817	1	NGb	C0H	1	0.0	12.0110
7003	opls_818	1	NGb	C0I	1	0.0	12.0110
7004	opls_819	1	NGb	C0J	1	0.0	12.0110
7005	opls_820	1	NGb	C0K	1	0.0	12.0110
7006	opls_821	1	NGb	C0M	1	0.0	12.0110
7007	opls_822	1	NGb	C0N	1	0.0	12.0110
7008	opls_823	1	NGb	C0O	1	0.0	12.0110
7009	opls_824	1	NGb	C0P	1	0.0	12.0110
7010	opls_825	1	NGb	C0Q	1	0.0	12.0110
7011	opls_826	1	NGb	C0R	1	0.0	12.0110
7012	opls_827	1	NGb	C0S	1	0.0	12.0110
7013	opls_828	1	NGb	C0T	1	0.0	12.0110
7014	opls_829	1	NGb	C0U	1	0.0	12.0110
7015	opls_830	1	NGb	C0V	1	0.0	12.0110
7016	opls_831	1	NGb	C0W	1	0.0	12.0110
7017	opls_832	1	NGb	C0X	2	0.0	12.0110
7018	opls_833	1	NGb	N0Y	2	0.0	14.0070
7019	opls_834	1	NGb	C0Z	2	0.0	12.0110
7020	opls_835	1	NGb	C10	2	0.0	12.0110
7021	opls_836	1	NGb	C11	2	0.0	12.0110
7022	opls_837	1	NGb	N12	2	0.0	14.0070
7023	opls_838	1	NGb	C13	2	0.0	12.0110
7024	opls_839	1	NGb	N14	2	0.0	14.0070
7025	opls_840	1	NGb	O15	2	0.0	15.9990
7026	opls_841	1	NGb	C16	2	0.0	12.0110
7027	opls_842	1	NGb	C17	2	0.0	12.0110
7028	opls_843	1	NGb	C18	2	0.0	12.0110
7029	opls_844	1	NGb	C19	2	0.0	12.0110
7030	opls_845	1	NGb	C1A	2	0.0	12.0110
7031	opls_846	1	NGb	C1B	2	0.0	12.0110
7032	opls_847	1	NGb	C1C	2	0.0	12.0110
7033	opls_848	1	NGb	C1D	2	0.0	12.0110
7034	opls_849	1	NGb	F1E	2	0.0	18.9984
7035	opls_850	1	NGb	F1F	2	0.0	18.9984
7036	opls_851	1	NGb	F1G	2	0.0	18.9984
7037	opls_852	1	NGb	C1H	2	0.0	12.0110
7038	opls_853	1	NGb	C1I	2	0.0	12.0110
7039	opls_854	1	NGb	C1J	2	0.0	12.0110
7040	opls_855	1	NGb	C1K	2	0.0	12.0110
7041	opls_856	1	NGb	C1M	2	0.0	12.0110
7042	opls_857	1	NGb	C1N	2	0.0	12.0110
7043	opls_858	1	NGb	C1O	2	0.0	12.0110
7044	opls_859	1	NGb	H1P	2	0.0	1.0080
7045	opls_860	1	NGb	H1Q	2	0.0	1.0080
7046	opls_861	1	NGb	H1R	2	0.0	1.0080
7047	opls_862	1	NGb	H1S	2	0.0	1.0080
7048	opls_863	1	NGb	H1T	2	0.0	1.0080
7049	opls_864	1	NGb	H1U	2	0.0	1.0080
7050	opls_865	1	NGb	H1V	3	0.0	1.0080
7051	opls_866	1	NGb	H1W	3	0.0	1.0080
7052	opls_867	1	NGb	H1X	3	0.0	1.0080
7053	opls_868	1	NGb	H1Y	3	0.0	1.0080
7054	opls_869	1	NGb	H1Z	3	0.0	1.0080
7055	opls_new	1	NGb	DUM	1	0.0	1.0
7056	opls_871	1	NGb	H21	3	0.0	1.0080
7057	opls_872	1	NGb	H22	3	0.0	1.0080
7058	opls_873	1	NGb	H23	3	0.0	1.0080
7059	opls_874	1	NGb	H24	3	0.0	1.0080
7060	opls_875	1	NGb	H25	3	0.0	1.0080
7061	opls_876	1	NGb	H26	3	0.0	1.0080
7062	opls_877	1	NGb	H27	3	0.0	1.0080
7063	opls_878	1	NGb	H28	3	0.0	1.0080
7064	opls_879	1	NGb	H29	3	0.0	1.0080
7065	opls_880	1	NGb	H2A	3	0.0	1.0080
7066	opls_881	1	NGb	H2B	3	0.0	1.0080
7067	opls_882	1	NGb	H2C	3	0.0	1.0080
7068	opls_883	1	NGb	H2D	3	0.0	1.0080
7069	opls_884	1	NGb	H2E	3	0.0	1.0080
7070	opls_885	1	NGb	H2F	3	0.0	1.0080
7071	opls_886	1	NGb	H2G	3	0.0	1.0080
7072	opls_887	1	NGb	H2H	3	0.0	1.0080
7073	opls_888	1	NGb	H2I	3	0.0	1.0080
7074	opls_889	1	NGb	H2J	3	0.0	1.0080
7075	opls_890	1	NGb	H2K	3	0.0	1.0080
7076	opls_891	1	NGb	H2M	3	0.0	1.0080
7077	opls_892	1	NGb	H2N	3	0.0	1.0080
7078	opls_893	1	NGb	H2O	3	0.0	1.0080
7079	opls_894	1	NGb	H2P	3	0.0	1.0080
7080	opls_895	1	NGb	H2Q	3	0.0	1.0080
7081	opls_896	1	NGb	H2R	3	0.0	1.0080
7082	opls_897	1	NGb	H2S	3	0.0	1.0080
7083	opls_898	1	NGb	H2T	4	0.0	1.0080
7084	opls_899	1	NGb	H2U	4	0.0	1.0080
7085	opls_800	1	NGb	C00	1	0.0	12.0110
7086	opls_801	1	NGb	N01	1	0.0	14.0070
7087	opls_802	1	NGb	C02	1	0.0	12.0110
7088	opls_803	1	NGb	C03	1	0.0	12.0110
7089	opls_804	1	NGb	O04	1	0.0	15.9990
7090	opls_805	1	NGb	C05	1	0.0	12.0110
7091	opls_806	1	NGb	C06	1	0.0	12.0110
7092	opls_807	1	NGb	C07	1	0.0	12.0110
7093	opls_808	1	NGb	C08	1	0.0	12.0110
7094	opls_809	1	NGb	C09	1	0.0	12.0110
7095	opls_810	1	NGb	C0A	1	0.0	12.0110
7096	opls_811	1	NGb	C0B	1	0.0	12.0110
7097	opls_812	1	NGb	C0C	1	0.0	12.0110
7098	opls_new	1	NGb	DUM	1	0.0	1.0
7099	opls_814	1	NGb	C0E	1	0.0	12.0110
7100	opls_815	1	NGb	C0F	1	0.0	12.0110
7101	opls_816	1	NGb	C0G	1	0.0	12.0110
7102	opls_817	1	NGb	C0H	1	0.0	12.0110
7103	opls_818	1	NGb	C0I	1	0.0	12.0110
7104	opls_819	1	NGb	C0J	1	0.0	12.0110
7105	opls_820	1	NGb	C0K	1	0.0	12.0110
7106	opls_821	1	NGb	C0M	1	0.0	12.0110
7107	opls_822	1	NGb	C0N	1	0.0	12.0110
7108	opls_823	1	NGb	C0O	1	0.0	12.0110
7109	opls_824	1	NGb	C0P	1	0.0	12.0110
7110	opls_825	1	NGb	C0Q	1	0.0	12.0110
7111	opls_826	1	NGb	C0R	1	0.0	12.0110
7112	opls_827	1	NGb	C0S	1	0.0	12.0110
7113	opls_828	1	NGb	C0T	1	0.0	12.0110
7114	opls_829	1	NGb	C0U	1	0.0	12.0110
7115	opls_830	1	NGb	C0V	1	0.0	12.0110
7116	opls_831	1	NGb	C0W	1	0.0	12.0110
7117	opls_832	1	NGb	C0X	2	0.0	12.0110
7118	opls_833	1	NGb	N0Y	2	0.0	14.0070
7119	opls_834	1	NGb	C0Z	2	0.0	12.0110
7120	opls_835	1	NGb	C10	2	0.0	12.0110
7121	opls_836	1	NGb	C11	2	0.0	12.0110
7122	opls_837	1	NGb	N12	2	0.0	14.0070
7123	opls_838	1	NGb	C13	2	0.0	12.0110
7124	opls_839	1	NGb	N14	2	0.0	14.0070
7125	opls_840	1	NGb	O15	2	0.0	15.9990
7126	opls_841	1	NGb	C16	2	0.0	12.0110
7127	opls_842	1	NGb	C17	2	0.0	12.0110
7128	opls_843	1	NGb	C18	2	0.0	12.0110
7129	opls_844	1	NGb	C19	2	0.0	12.0110
7130	opls_845	1	NGb	C1A	2	0.0	12.0110
7131	opls_846	1	NGb	C1B	2	0.0	12.0110
7132	opls_847	1	NGb	C1C	2	0.0	12.0110
7133	opls_848	1	NGb	C1D	2	0.0	12.0110
7134	opls_849	1	NGb	F1E	2	0.0	18.9984
7135	opls_850	1	NGb	F1F	2	0.0	18.9984
7136	opls_851	1	NGb	F1G	2	0.0	18.9984
7137	opls_852	1	NGb	C1H	2	0.0	12.0110
7138	opls_853	1	NGb	C1I	2	0.0	12.0110
7139	opls_854	1	NGb	C1J	2	0.0	12.0110
7140	opls_855	1	NGb	C1K	2	0.0	12.0110
7141	opls_856	1	NGb	C1M	2	0.0	12.0110
7142	opls_857	1	NGb	C1N	2	0.0	12.0110
7143	opls_858	1	NGb	C1O	2	0.0	12.0110
7144	opls_859	1	NGb	H1P	2	0.0	1.0080
7145	opls_860	1	NGb	H1Q	2	0.0	1.0080
7146	opls_861	1	NGb	H1R	2	0.0	1.0080
7147	opls_862	1	NGb	H1S	2	0.0	1.0080
7148	opls_863	1	NGb	H1T	2	0.0	1.0080
7149	opls_864	1	NGb	H1U	2	0.0	1.0080
7150	opls_865	1	NGb	H1V	3	0.0	1.0080
7151	opls_866	1	NGb	H1W	3	0.0	1.0080
7152	opls_867	1	NGb	H1X	3	0.0	1.0080
7153	opls_868	1	NGb	H1Y	3	0.0	1.0080
7154	opls_869	1	NGb	H1Z	3	0.0	1.0080
7155	opls_new	1	NGb	DUM	1	0.0	1.0
7156	opls_871	1	NGb	H21	3	0.0	1.0080
7157	opls_872	1	NGb	H22	3	0.0	1.0080
7158	opls_873	1	NGb	H23	3	0.0	1.0080
7159	opls_874	1	NGb	H24	3	0.0	1.0080
7160	opls_875	1	NGb	H25	3	0.0	1.0080
7161	opls_876	1	NGb	H26	3	0.0	1.0080
7162	opls_877	1	NGb	H27	3	0.0	1.0080
7163	opls_878	1	NGb	H28	3	0.0	1.0080
7164	opls_879	1	NGb	H29	3	0.0	1.0080
7165	opls_880	1	NGb	H2A	3	0.0	1.0080
7166	opls_881	1	NGb	H2B	3	0.0	1.0080
7167	opls_882	1	NGb	H2C	3	0.0	1.0080
7168	opls_883	1	NGb	H2D	3	0.0	1.0080
7169	opls_884	1	NGb	H2E	3	0.0	1.0080
7170	opls_885	1	NGb	H2F	3	0.0	1.0080
7171	opls_886	1	NGb	H2G	3	0.0	1.0080
7172	opls_887	1	NGb	H2H	3	0.0	1.0080
7173	opls_888	1	NGb	H2I	3	0.0	1.0080
7174	opls_889	1	NGb	H2J	3	0.0	1.0080
7175	opls_890	1	NGb	H2K	3	0.0	1.0080
7176	opls_891	1	NGb	H2M	3	0.0	1.0080
7177	opls_892	1	NGb	H2N	3	0.0	1.0080
7178	opls_893	1	NGb	H2O	3	0.0	1.0080
7179	opls_894	1	NGb	H2P	3	0.0	1.0080
7180	opls_895	1	NGb	H2Q	3	0.0	1.0080
7181	opls_896	1	NGb	H2R	3	0.0	1.0080
7182	opls_897	1	NGb	H2S	3	0.0	1.0080
7183	opls_898	1	NGb	H2T	4	0.0	1.0080
7184	opls_899	1	NGb	H2U	4	0.0	1.0080
7185	opls_800	1	NGb	C00	1	0.0	12.0110
7186	opls_801	1	NGb	N01	1	0.0	14.0070
7187	opls_802	1	NGb	C02	1	0.0	12.0110
7188	opls_803	1	NGb	C03	1	0.0	12.0110
7189	opls_804	1	NGb	O04	1	0.0	15.9990
7190	opls_805	1	NGb	C05	1	0.0	12.0110
7191	opls_806	1	NGb	C06	1	0.0	12.0110
7192	opls_807	1	NGb	C07	1	0.0	12.0110
7193	opls_808	1	NGb	C08	1	0.0	12.0110
7194	opls_809	1	NGb	C09	1	0.0	12.0110
7195	opls_810	1	NGb	C0A	1	0.0	12.0110
7196	opls_811	1	NGb	C0B	1	0.0	12.0110
7197	opls_812	1	NGb	C0C	1	0.0	12.0110
7198	opls_new	1	NGb	DUM	1	0.0	1.0
7199	opls_814	1	NGb	C0E	1	0.0	12.0110
7200	opls_815	1	NGb	C0F	1	0.0	12.0110
7201	opls_816	1	NGb	C0G	1	0.0	12.0110
7202	opls_817	1	NGb	C0H	1	0.0	12.0110
7203	opls_818	1	NGb	C0I	1	0.0	12.0110
7204	opls_819	1	NGb	C0J	1	0.0	12.0110
7205	opls_820	1	NGb	C0K	1	0.0	12.0110
7206	opls_821	1	NGb	C0M	1	0.0	12.0110
7207	opls_822	1	NGb	C0N	1	0.0	12.0110
7208	opls_823	1	NGb	C0O	1	0.0	12.0110
7209	opls_824	1	NGb	C0P	1	0.0	12.0110
7210	opls_825	1	NGb	C0Q	1	0.0	12.0110
7211	opls_826	1	NGb	C0R	1	0.0	12.0110
7212	opls_827	1	NGb	C0S	1	0.0	12.0110
7213	opls_828	1	NGb	C0T	1	0.0	12.0110
7214	opls_829	1	NGb	C0U	1	0.0	12.0110
7215	opls_830	1	NGb	C0V	1	0.0	12.0110
7216	opls_831	1	NGb	C0W	1	0.0	12.0110
7217	opls_832	1	NGb	C0X	2	0.0	12.0110
7218	opls_833	1	NGb	N0Y	2	0.0	14.0070
7219	opls_834	1	NGb	C0Z	2	0.0	12.0110
7220	opls_835	1	NGb	C10	2	0.0	12.0110
7221	opls_836	1	NGb	C11	2	0.0	12.0110
7222	opls_837	1	NGb	N12	2	0.0	14.0070
7223	opls_838	1	NGb	C13	2	0.0	12.0110
7224	opls_839	1	NGb	N14	2	0.0	14.0070
7225	opls_840	1	NGb	O15	2	0.0	15.9990
7226	opls_841	1	NGb	C16	2	0.0	12.0110
7227	opls_842	1	NGb	C17	2	0.0	12.0110
7228	opls_843	1	NGb	C18	2	0.0	12.0110
7229	opls_844	1	NGb	C19	2	0.0	12.0110
7230	opls_845	1	NGb	C1A	2	0.0	12.0110
7231	opls_846	1	NGb	C1B	2	0.0	12.0110
7232	opls_847	1	NGb	C1C	2	0.0	12.0110
7233	opls_848	1	NGb	C1D	2	0.0	12.0110
7234	opls_849	1	NGb	F1E	2	0.0	18.9984
7235	opls_850	1	NGb	F1F	2	0.0	18.9984
7236	opls_851	1	NGb	F1G	2	0.0	18.9984
7237	opls_852	1	NGb	C1H	2	0.0	12.0110
7238	opls_853	1	NGb	C1I	2	0.0	12.0110
7239	opls_854	1	NGb	C1J	2	0.0	12.0110
7240	opls_855	1	NGb	C1K	2	0.0	12.0110
7241	opls_856	1	NGb	C1M	2	0.0	12.0110
7242	opls_857	1	NGb	C1N	2	0.0	12.0110
7243	opls_858	1	NGb	C1O	2	0.0	12.0110
7244	opls_859	1	NGb	H1P	2	0.0	1.0080
7245	opls_860	1	NGb	H1Q	2	0.0	1.0080
7246	opls_861	1	NGb	H1R	2	0.0	1.0080
7247	opls_862	1	NGb	H1S	2	0.0	1.0080
7248	opls_863	1	NGb	H1T	2	0.0	1.0080
7249	opls_864	1	NGb	H1U	2	0.0	1.0080
7250	opls_865	1	NGb	H1V	3	0.0	1.0080
7251	opls_866	1	NGb	H1W	3	0.0	1.0080
7252	opls_867	1	NGb	H1X	3	0.0	1.0080
7253	opls_868	1	NGb	H1Y	3	0.0	1.0080
7254	opls_869	1	NGb	H1Z	3	0.0	1.0080
7255	opls_new	1	NGb	DUM	1	0.0	1.0
7256	opls_871	1	NGb	H21	3	0.0	1.0080
7257	opls_872	1	NGb	H22	3	0.0	1.0080
7258	opls_873	1	NGb	H23	3	0.0	1.0080
7259	opls_874	1	NGb	H24	3	0.0	1.0080
7260	opls_875	1	NGb	H25	3	0.0	1.0080
7261	opls_876	1	NGb	H26	3	0.0	1.0080
7262	opls_877	1	NGb	H27	3	0.0	1.0080
7263	opls_878	1	NGb	H28	3	0.0	1.0080
7264	opls_879	1	NGb	H29	3	0.0	1.0080
7265	opls_880	1	NGb	H2A	3	0.0	1.0080
7266	opls_881	1	NGb	H2B	3	0.0	1.0080
7267	opls_882	1	NGb	H2C	3	0.0	1.0080
7268	opls_883	1	NGb	H2D	3	0.0	1.0080
7269	opls_884	1	NGb	H2E	3	0.0	1.0080
7270	opls_885	1	NGb	H2F	3	0.0	1.0080
7271	opls_886	1	NGb	H2G	3	0.0	1.0080
7272	opls_887	1	NGb	H2H	3	0.0	1.0080
7273	opls_888	1	NGb	H2I	3	0.0	1.0080
7274	opls_889	1	NGb	H2J	3	0.0	1.0080
7275	opls_890	1	NGb	H2K	3	0.0	1.0080
7276	opls_891	1	NGb	H2M	3	0.0	1.0080
7277	opls_892	1	NGb	H2N	3	0.0	1.0080
7278	opls_893	1	NGb	H2O	3	0.0	1.0080
7279	opls_894	1	NGb	H2P	3	0.0	1.0080
7280	opls_895	1	NGb	H2Q	3	0.0	1.0080
7281	opls_896	1	NGb	H2R	3	0.0	1.0080
7282	opls_897	1	NGb	H2S	3	0.0	1.0080
7283	opls_898	1	NGb	H2T	4	0.0	1.0080
7284	opls_899	1	NGb	H2U	4	0.0	1.0080
7285	opls_800	1	NGb	C00	1	0.0	12.0110
7286	opls_801	1	NGb	N01	1	0.0	14.0070
7287	opls_802	1	NGb	C02	1	0.0	12.0110
7288	opls_803	1	NGb	C03	1	0.0	12.0110
7289	opls_804	1	NGb	O04	1	0.0	15.9990
7290	opls_805	1	NGb	C05	1	0.0	12.0110
7291	opls_806	1	NGb	C06	1	0.0	12.0110
7292	opls_807	1	NGb	C07	1	0.0	12.0110
7293	opls_808	1	NGb	C08	1	0.0	12.0110
7294	opls_809	1	NGb	C09	1	0.0	12.0110
7295	opls_810	1	NGb	C0A	1	0.0	12.0110
7296	opls_811	1	NGb	C0B	1	0.0	12.0110
7297	opls_812	1	NGb	C0C	1	0.0	12.0110
7298	opls_new	1	NGb	DUM	1	0.0	1.0
7299	opls_814	1	NGb	C0E	1	0.0	12.0110
7300	opls_815	1	NGb	C0F	1	0.0	12.0110
7301	opls_816	1	NGb	C0G	1	0.0	12.0110
7302	opls_817	1	NGb	C0H	1	0.0	12.0110
7303	opls_818	1	NGb	C0I	1	0.0	12.0110
7304	opls_819	1	NGb	C0J	1	0.0	12.0110
7305	opls_820	1	NGb	C0K	1	0.0	12.0110
7306	opls_821	1	NGb	C0M	1	0.0	12.0110
7307	opls_822	1	NGb	C0N	1	0.0	12.0110
7308	opls_823	1	NGb	C0O	1	0.0	12.0110
7309	opls_824	1	NGb	C0P	1	0.0	12.0110
7310	opls_825	1	NGb	C0Q	1	0.0	12.0110
7311	opls_826	1	NGb	C0R	1	0.0	12.0110
7312	opls_827	1	NGb	C0S	1	0.0	12.0110
7313	opls_828	1	NGb	C0T	1	0.0	12.0110
7314	opls_829	1	NGb	C0U	1	0.0	12.0110
7315	opls_830	1	NGb	C0V	1	0.0	12.0110
7316	opls_831	1	NGb	C0W	1	0.0	12.0110
7317	opls_832	1	NGb	C0X	2	0.0	12.0110
7318	opls_833	1	NGb	N0Y	2	0.0	14.0070
7319	opls_834	1	NGb	C0Z	2	0.0	12.0110
7320	opls_835	1	NGb	C10	2	0.0	12.0110
7321	opls_836	1	NGb	C11	2	0.0	12.0110
7322	opls_837	1	NGb	N12	2	0.0	14.0070
7323	opls_838	1	NGb	C13	2	0.0	12.0110
7324	opls_839	1	NGb	N14	2	0.0	14.0070
7325	opls_840	1	NGb	O15	2	0.0	15.9990
7326	opls_841	1	NGb	C16	2	0.0	12.0110
7327	opls_842	1	NGb	C17	2	0.0	12.0110
7328	opls_843	1	NGb	C18	2	0.0	12.0110
7329	opls_844	1	NGb	C19	2	0.0	12.0110
7330	opls_845	1	NGb	C1A	2	0.0	12.0110
7331	opls_846	1	NGb	C1B	2	0.0	12.0110
7332	opls_847	1	NGb	C1C	2	0.0	12.0110
7333	opls_848	1	NGb	C1D	2	0.0	12.0110
7334	opls_849	1	NGb	F1E	2	0.0	18.9984
7335	opls_850	1	NGb	F1F	2	0.0	18.9984
7336	opls_851	1	NGb	F1G	2	0.0	18.9984
7337	opls_852	1	NGb	C1H	2	0.0	12.0110
7338	opls_853	1	NGb	C1I	2	0.0	12.0110
7339	opls_854	1	NGb	C1J	2	0.0	12.0110
7340	opls_855	1	NGb	C1K	2	0.0	12.0110
7341	opls_856	1	NGb	C1M	2	0.0	12.0110
7342	opls_857	1	NGb	C1N	2	0.0	12.0110
7343	opls_858	1	NGb	C1O	2	0.0	12.0110
7344	opls_859	1	NGb	H1P	2	0.0	1.0080
7345	opls_860	1	NGb	H1Q	2	0.0	1.0080
7346	opls_861	1	NGb	H1R	2	0.0	1.0080
7347	opls_862	1	NGb	H1S	2	0.0	1.0080
7348	opls_863	1	NGb	H1T	2	0.0	1.0080
7349	opls_864	1	NGb	H1U	2	0.0	1.0080
7350	opls_865	1	NGb	H1V	3	0.0	1.0080
7351	opls_866	1	NGb	H1W	3	0.0	1.0080
7352	opls_867	1	NGb	H1X	3	0.0	1.0080
7353	opls_868	1	NGb	H1Y	3	0.0	1.0080
7354	opls_869	1	NGb	H1Z	3	0.0	1.0080
7355	opls_new	1	NGb	DUM	1	0.0	1.0
7356	opls_871	1	NGb	H21	3	0.0	1.0080
7357	opls_872	1	NGb	H22	3	0.0	1.0080
7358	opls_873	1	NGb	H23	3	0.0	1.0080
7359	opls_874	1	NGb	H24	3	0.0	1.0080
7360	opls_875	1	NGb	H25	3	0.0	1.0080
7361	opls_876	1	NGb	H26	3	0.0	1.0080
7362	opls_877	1	NGb	H27	3	0.0	1.0080
7363	opls_878	1	NGb	H28	3	0.0	1.0080
7364	opls_879	1	NGb	H29	3	0.0	1.0080
7365	opls_880	1	NGb	H2A	3	0.0	1.0080
7366	opls_881	1	NGb	H2B	3	0.0	1.0080
7367	opls_882	1	NGb	H2C	3	0.0	1.0080
7368	opls_883	1	NGb	H2D	3	0.0	1.0080
7369	opls_884	1	NGb	H2E	3	0.0	1.0080
7370	opls_885	1	NGb	H2F	3	0.0	1.0080
7371	opls_886	1	NGb	H2G	3	0.0	1.0080
7372	opls_887	1	NGb	H2H	3	0.0	1.0080
7373	opls_888	1	NGb	H2I	3	0.0	1.0080
7374	opls_889	1	NGb	H2J	3	0.0	1.0080
7375	opls_890	1	NGb	H2K	3	0.0	1.0080
7376	opls_891	1	NGb	H2M	3	0.0	1.0080
7377	opls_892	1	NGb	H2N	3	0.0	1.0080
7378	opls_893	1	NGb	H2O	3	0.0	1.0080
7379	opls_894	1	NGb	H2P	3	0.0	1.0080
7380	opls_895	1	NGb	H2Q	3	0.0	1.0080
7381	opls_896	1	NGb	H2R	3	0.0	1.0080
7382	opls_897	1	NGb	H2S	3	0.0	1.0080
7383	opls_898	1	NGb	H2T	4	0.0	1.0080
7384	opls_899	1	NGb	H2U	4	0.0	1.0080
7385	opls_800	1	NGb	C00	1	0.0	12.0110
7386	opls_801	1	NGb	N01	1	0.0	14.0070
7387	opls_802	1	NGb	C02	1	0.0	12.0110
7388	opls_803	1	NGb	C03	1	0.0	12.0110
7389	opls_804	1	NGb	O04	1	0.0	15.9990
7390	opls_805	1	NGb	C05	1	0.0	12.0110
7391	opls_806	1	NGb	C06	1	0.0	12.0110
7392	opls_807	1	NGb	C07	1	0.0	12.0110
7393	opls_808	1	NGb	C08	1	0.0	12.0110
7394	opls_809	1	NGb	C09	1	0.0	12.0110
7395	opls_810	1	NGb	C0A	1	0.0	12.0110
7396	opls_811	1	NGb	C0B	1	0.0	12.0110
7397	opls_812	1	NGb	C0C	1	0.0	12.0110
7398	opls_new	1	NGb	DUM	1	0.0	1.0
7399	opls_814	1	NGb	C0E	1	0.0	12.0110
7400	opls_815	1	NGb	C0F	1	0.0	12.0110
7401	opls_816	1	NGb	C0G	1	0.0	12.0110
7402	opls_817	1	NGb	C0H	1	0.0	12.0110
7403	opls_818	1	NGb	C0I	1	0.0	12.0110
7404	opls_819	1	NGb	C0J	1	0.0	12.0110
7405	opls_820	1	NGb	C0K	1	0.0	12.0110
7406	opls_821	1	NGb	C0M	1	0.0	12.0110
7407	opls_822	1	NGb	C0N	1	0.0	12.0110
7408	opls_823	1	NGb	C0O	1	0.0	12.0110
7409	opls_824	1	NGb	C0P	1	0.0	12.0110
7410	opls_825	1	NGb	C0Q	1	0.0	12.0110
7411	opls_826	1	NGb	C0R	1	0.0	12.0110
7412	opls_827	1	NGb	C0S	1	0.0	12.0110
7413	opls_828	1	NGb	C0T	1	0.0	12.0110
7414	opls_829	1	NGb	C0U	1	0.0	12.0110
7415	opls_830	1	NGb	C0V	1	0.0	12.0110
7416	opls_831	1	NGb	C0W	1	0.0	12.0110
7417	opls_832	1	NGb	C0X	2	0.0	12.0110
7418	opls_833	1	NGb	N0Y	2	0.0	14.0070
7419	opls_834	1	NGb	C0Z	2	0.0	12.0110
7420	opls_835	1	NGb	C10	2	0.0	12.0110
7421	opls_836	1	NGb	C11	2	0.0	12.0110
7422	opls_837	1	NGb	N12	2	0.0	14.0070
7423	opls_838	1	NGb	C13	2	0.0	12.0110
7424	opls_839	1	NGb	N14	2	0.0	14.0070
7425	opls_840	1	NGb	O15	2	0.0	15.9990
7426	opls_841	1	NGb	C16	2	0.0	12.0110
7427	opls_842	1	NGb	C17	2	0.0	12.0110
7428	opls_843	1	NGb	C18	2	0.0	12.0110
7429	opls_844	1	NGb	C19	2	0.0	12.0110
7430	opls_845	1	NGb	C1A	2	0.0	12.0110
7431	opls_846	1	NGb	C1B	2	0.0	12.0110
7432	opls_847	1	NGb	C1C	2	0.0	12.0110
7433	opls_848	1	NGb	C1D	2	0.0	12.0110
7434	opls_849	1	NGb	F1E	2	0.0	18.9984
7435	opls_850	1	NGb	F1F	2	0.0	18.9984
7436	opls_851	1	NGb	F1G	2	0.0	18.9984
7437	opls_852	1	NGb	C1H	2	0.0	12.0110
7438	opls_853	1	NGb	C1I	2	0.0	12.0110
7439	opls_854	1	NGb	C1J	2	0.0	12.0110
7440	opls_855	1	NGb	C1K	2	0.0	12.0110
7441	opls_856	1	NGb	C1M	2	0.0	12.0110
7442	opls_857	1	NGb	C1N	2	0.0	12.0110
7443	opls_858	1	NGb	C1O	2	0.0	12.0110
7444	opls_859	1	NGb	H1P	2	0.0	1.0080
7445	opls_860	1	NGb	H1Q	2	0.0	1.0080
7446	opls_861	1	NGb	H1R	2	0.0	1.0080
7447	opls_862	1	NGb	H1S	2	0.0	1.0080
7448	opls_863	1	NGb	H1T	2	0.0	1.0080
7449	opls_864	1	NGb	H1U	2	0.0	1.0080
7450	opls_865	1	NGb	H1V	3	0.0	1.0080
7451	opls_866	1	NGb	H1W	3	0.0	1.0080
7452	opls_867	1	NGb	H1X	3	0.0	1.0080
7453	opls_868	1	NGb	H1Y	3	0.0	1.0080
7454	opls_869	1	NGb	H1Z	3	0.0	1.0080
7455	opls_new	1	NGb	DUM	1	0.0	1.0
7456	opls_871	1	NGb	H21	3	0.0	1.0080
7457	opls_872	1	NGb	H22	3	0.0	1.0080
7458	opls_873	1	NGb	H23	3	0.0	1.0080
7459	opls_874	1	NGb	H24	3	0.0	1.0080
7460	opls_875	1	NGb	H25	3	0.0	1.0080
7461	opls_876	1	NGb	H26	3	0.0	1.0080
7462	opls_877	1	NGb	H27	3	0.0	1.0080
7463	opls_878	1	NGb	H28	3	0.0	1.0080
7464	opls_879	1	NGb	H29	3	0.0	1.0080
7465	opls_880	1	NGb	H2A	3	0.0	1.0080
7466	opls_881	1	NGb	H2B	3	0.0	1.0080
7467	opls_882	1	NGb	H2C	3	0.0	1.0080
7468	opls_883	1	NGb	H2D	3	0.0	1.0080
7469	opls_884	1	NGb	H2E	3	0.0	1.0080
7470	opls_885	1	NGb	H2F	3	0.0	1.0080
7471	opls_886	1	NGb	H2G	3	0.0	1.0080
7472	opls_887	1	NGb	H2H	3	0.0	1.0080
7473	opls_888	1	NGb	H2I	3	0.0	1.0080
7474	opls_889	1	NGb	H2J	3	0.0	1.0080
7475	opls_890	1	NGb	H2K	3	0.0	1.0080
7476	opls_891	1	NGb	H2M	3	0.0	1.0080
7477	opls_892	1	NGb	H2N	3	0.0	1.0080
7478	opls_893	1	NGb	H2O	3	0.0	1.0080
7479	opls_894	1	NGb	H2P	3	0.0	1.0080
7480	opls_895	1	NGb	H2Q	3	0.0	1.0080
7481	opls_896	1	NGb	H2R	3	0.0	1.0080
7482	opls_897	1	NGb	H2S	3	0.0	1.0080
7483	opls_898	1	NGb	H2T	4	0.0	1.0080
7484	opls_899	1	NGb	H2U	4	0.0	1.0080
7485	opls_800	1	NGb	C00	1	0.0	12.0110
7486	opls_801	1	NGb	N01	1	0.0	14.0070
7487	opls_802	1	NGb	C02	1	0.0	12.0110
7488	opls_803	1	NGb	C03	1	0.0	12.0110
7489	opls_804	1	NGb	O04	1	0.0	15.9990
7490	opls_805	1	NGb	C05	1	0.0	12.0110
7491	opls_806	1	NGb	C06	1	0.0	12.0110
7492	opls_807	1	NGb	C07	1	0.0	12.0110
7493	opls_808	1	NGb	C08	1	0.0	12.0110
7494	opls_809	1	NGb	C09	1	0.0	12.0110
7495	opls_810	1	NGb	C0A	1	0.0	12.0110
7496	opls_811	1	NGb	C0B	1	0.0	12.0110
7497	opls_812	1	NGb	C0C	1	0.0	12.0110
7498	opls_new	1	NGb	DUM	1	0.0	1.0
7499	opls_814	1	NGb	C0E	1	0.0	12.0110
7500	opls_815	1	NGb	C0F	1	0.0	12.0110
7501	opls_816	1	NGb	C0G	1	0.0	12.0110
7502	opls_817	1	NGb	C0H	1	0.0	12.0110
7503	opls_818	1	NGb	C0I	1	0.0	12.0110
7504	opls_819	1	NGb	C0J	1	0.0	12.0110
7505	opls_820	1	NGb	C0K	1	0.0	12.0110
7506	opls_821	1	NGb	C0M	1	0.0	12.0110
7507	opls_822	1	NGb	C0N	1	0.0	12.0110
7508	opls_823	1	NGb	C0O	1	0.0	12.0110
7509	opls_824	1	NGb	C0P	1	0.0	12.0110
7510	opls_825	1	NGb	C0Q	1	0.0	12.0110
7511	opls_826	1	NGb	C0R	1	0.0	12.0110
7512	opls_827	1	NGb	C0S	1	0.0	12.0110
7513	opls_828	1	NGb	C0T	1	0.0	12.0110
7514	opls_829	1	NGb	C0U	1	0.0	12.0110
7515	opls_830	1	NGb	C0V	1	0.0	12.0110
7516	opls_831	1	NGb	C0W	1	0.0	12.0110
7517	opls_832	1	NGb	C0X	2	0.0	12.0110
7518	opls_833	1	NGb	N0Y	2	0.0	14.0070
7519	opls_834	1	NGb	C0Z	2	0.0	12.0110
7520	opls_835	1	NGb	C10	2	0.0	12.0110
7521	opls_836	1	NGb	C11	2	0.0	12.0110
7522	opls_837	1	NGb	N12	2	0.0	14.0070
7523	opls_838	1	NGb	C13	2	0.0	12.0110
7524	opls_839	1	NGb	N14	2	0.0	14.0070
7525	opls_840	1	NGb	O15	2	0.0	15.9990
7526	opls_841	1	NGb	C16	2	0.0	12.0110
7527	opls_842	1	NGb	C17	2	0.0	12.0110
7528	opls_843	1	NGb	C18	2	0.0	12.0110
7529	opls_844	1	NGb	C19	2	0.0	12.0110
7530	opls_845	1	NGb	C1A	2	0.0	12.0110
7531	opls_846	1	NGb	C1B	2	0.0	12.0110
7532	opls_847	1	NGb	C1C	2	0.0	12.0110
7533	opls_848	1	NGb	C1D	2	0.0	12.0110
7534	opls_849	1	NGb	F1E	2	0.0	18.9984
7535	opls_850	1	NGb	F1F	2	0.0	18.9984
7536	opls_851	1	NGb	F1G	2	0.0	18.9984
7537	opls_852	1	NGb	C1H	2	0.0	12.0110
7538	opls_853	1	NGb	C1I	2	0.0	12.0110
7539	opls_854	1	NGb	C1J	2	0.0	12.0110
7540	opls_855	1	NGb	C1K	2	0.0	12.0110
7541	opls_856	1	NGb	C1M	2	0.0	12.0110
7542	opls_857	1	NGb	C1N	2	0.0	12.0110
7543	opls_858	1	NGb	C1O	2	0.0	12.0110
7544	opls_859	1	NGb	H1P	2	0.0	1.0080
7545	opls_860	1	NGb	H1Q	2	0.0	1.0080
7546	opls_861	1	NGb	H1R	2	0.0	1.0080
7547	opls_862	1	NGb	H1S	2	0.0	1.0080
7548	opls_863	1	NGb	H1T	2	0.0	1.0080
7549	opls_864	1	NGb	H1U	2	0.0	1.0080
7550	opls_865	1	NGb	H1V	3	0.0	1.0080
7551	opls_866	1	NGb	H1W	3	0.0	1.0080
7552	opls_867	1	NGb	H1X	3	0.0	1.0080
7553	opls_868	1	NGb	H1Y	3	0.0	1.0080
7554	opls_869	1	NGb	H1Z	3	0.0	1.0080
7555	opls_new	1	NGb	DUM	1	0.0	1.0
7556	opls_871	1	NGb	H21	3	0.0	1.0080
7557	opls_872	1	NGb	H22	3	0.0	1.0080
7558	opls_873	1	NGb	H23	3	0.0	1.0080
7559	opls_874	1	NGb	H24	3	0.0	1.0080
7560	opls_875	1	NGb	H25	3	0.0	1.0080
7561	opls_876	1	NGb	H26	3	0.0	1.0080
7562	opls_877	1	NGb	H27	3	0.0	1.0080
7563	opls_878	1	NGb	H28	3	0.0	1.0080
7564	opls_879	1	NGb	H29	3	0.0	1.0080
7565	opls_880	1	NGb	H2A	3	0.0	1.0080
7566	opls_881	1	NGb	H2B	3	0.0	1.0080
7567	opls_882	1	NGb	H2C	3	0.0	1.0080
7568	opls_883	1	NGb	H2D	3	0.0	1.0080
7569	opls_884	1	NGb	H2E	3	0.0	1.0080
7570	opls_885	1	NGb	H2F	3	0.0	1.0080
7571	opls_886	1	NGb	H2G	3	0.0	1.0080
7572	opls_887	1	NGb	H2H	3	0.0	1.0080
7573	opls_888	1	NGb	H2I	3	0.0	1.0080
7574	opls_889	1	NGb	H2J	3	0.0	1.0080
7575	opls_890	1	NGb	H2K	3	0.0	1.0080
7576	opls_891	1	NGb	H2M	3	0.0	1.0080
7577	opls_892	1	NGb	H2N	3	0.0	1.0080
7578	opls_893	1	NGb	H2O	3	0.0	1.0080
7579	opls_894	1	NGb	H2P	3	0.0	1.0080
7580	opls_895	1	NGb	H2Q	3	0.0	1.0080
7581	opls_896	1	NGb	H2R	3	0.0	1.0080
7582	opls_897	1	NGb	H2S	3	0.0	1.0080
7583	opls_898	1	NGb	H2T	4	0.0	1.0080
7584	opls_899	1	NGb	H2U	4	0.0	1.0080
7585	opls_800	1	NGb	C00	1	0.0	12.0110
7586	opls_801	1	NGb	N01	1	0.0	14.0070
7587	opls_802	1	NGb	C02	1	0.0	12.0110
7588	opls_803	1	NGb	C03	1	0.0	12.0110
7589	opls_804	1	NGb	O04	1	0.0	15.9990
7590	opls_805	1	NGb	C05	1	0.0	12.0110
7591	opls_806	1	NGb	C06	1	0.0	12.0110
7592	opls_807	1	NGb	C07	1	0.0	12.0110
7593	opls_808	1	NGb	C08	1	0.0	12.0110
7594	opls_809	1	NGb	C09	1	0.0	12.0110
7595	opls_810	1	NGb	C0A	1	0.0	12.0110
7596	opls_811	1	NGb	C0B	1	0.0	12.0110
7597	opls_812	1	NGb	C0C	1	0.0	12.0110
7598	opls_new	1	NGb	DUM	1	0.0	1.0
7599	opls_814	1	NGb	C0E	1	0.0	12.0110
7600	opls_815	1	NGb	C0F	1	0.0	12.0110
7601	opls_816	1	NGb	C0G	1	0.0	12.0110
7602	opls_817	1	NGb	C0H	1	0.0	12.0110
7603	opls_818	1	NGb	C0I	1	0.0	12.0110
7604	opls_819	1	NGb	C0J	1	0.0	12.0110
7605	opls_820	1	NGb	C0K	1	0.0	12.0110
7606	opls_821	1	NGb	C0M	1	0.0	12.0110
7607	opls_822	1	NGb	C0N	1	0.0	12.0110
7608	opls_823	1	NGb	C0O	1	0.0	12.0110
7609	opls_824	1	NGb	C0P	1	0.0	12.0110
7610	opls_825	1	NGb	C0Q	1	0.0	12.0110
7611	opls_826	1	NGb	C0R	1	0.0	12.0110
7612	opls_827	1	NGb	C0S	1	0.0	12.0110
7613	opls_828	1	NGb	C0T	1	0.0	12.0110
7614	opls_829	1	NGb	C0U	1	0.0	12.0110
7615	opls_830	1	NGb	C0V	1	0.0	12.0110
7616	opls_831	1	NGb	C0W	1	0.0	12.0110
7617	opls_832	1	NGb	C0X	2	0.0	12.0110
7618	opls_833	1	NGb	N0Y	2	0.0	14.0070
7619	opls_834	1	NGb	C0Z	2	0.0	12.0110
7620	opls_835	1	NGb	C10	2	0.0	12.0110
7621	opls_836	1	NGb	C11	2	0.0	12.0110
7622	opls_837	1	NGb	N12	2	0.0	14.0070
7623	opls_838	1	NGb	C13	2	0.0	12.0110
7624	opls_839	1	NGb	N14	2	0.0	14.0070
7625	opls_840	1	NGb	O15	2	0.0	15.9990
7626	opls_841	1	NGb	C16	2	0.0	12.0110
7627	opls_842	1	NGb	C17	2	0.0	12.0110
7628	opls_843	1	NGb	C18	2	0.0	12.0110
7629	opls_844	1	NGb	C19	2	0.0	12.0110
7630	opls_845	1	NGb	C1A	2	0.0	12.0110
7631	opls_846	1	NGb	C1B	2	0.0	12.0110
7632	opls_847	1	NGb	C1C	2	0.0	12.0110
7633	opls_848	1	NGb	C1D	2	0.0	12.0110
7634	opls_849	1	NGb	F1E	2	0.0	18.9984
7635	opls_850	1	NGb	F1F	2	0.0	18.9984
7636	opls_851	1	NGb	F1G	2	0.0	18.9984
7637	opls_852	1	NGb	C1H	2	0.0	12.0110
7638	opls_853	1	NGb	C1I	2	0.0	12.0110
7639	opls_854	1	NGb	C1J	2	0.0	12.0110
7640	opls_855	1	NGb	C1K	2	0.0	12.0110
7641	opls_856	1	NGb	C1M	2	0.0	12.0110
7642	opls_857	1	NGb	C1N	2	0.0	12.0110
7643	opls_858	1	NGb	C1O	2	0.0	12.0110
7644	opls_859	1	NGb	H1P	2	0.0	1.0080
7645	opls_860	1	NGb	H1Q	2	0.0	1.0080
7646	opls_861	1	NGb	H1R	2	0.0	1.0080
7647	opls_862	1	NGb	H1S	2	0.0	1.0080
7648	opls_863	1	NGb	H1T	2	0.0	1.0080
7649	opls_864	1	NGb	H1U	2	0.0	1.0080
7650	opls_865	1	NGb	H1V	3	0.0	1.0080
7651	opls_866	1	NGb	H1W	3	0.0	1.0080
7652	opls_867	1	NGb	H1X	3	0.0	1.0080
7653	opls_868	1	NGb	H1Y	3	0.0	1.0080
7654	opls_869	1	NGb	H1Z	3	0.0	1.0080
7655	opls_new	1	NGb	DUM	1	0.0	1.0
7656	opls_871	1	NGb	H21	3	0.0	1.0080
7657	opls_872	1	NGb	H22	3	0.0	1.0080
7658	opls_873	1	NGb	H23	3	0.0	1.0080
7659	opls_874	1	NGb	H24	3	0.0	1.0080
7660	opls_875	1	NGb	H25	3	0.0	1.0080
7661	opls_876	1	NGb	H26	3	0.0	1.0080
7662	opls_877	1	NGb	H27	3	0.0	1.0080
7663	opls_878	1	NGb	H28	3	0.0	1.0080
7664	opls_879	1	NGb	H29	3	0.0	1.0080
7665	opls_880	1	NGb	H2A	3	0.0	1.0080
7666	opls_881	1	NGb	H2B	3	0.0	1.0080
7667	opls_882	1	NGb	H2C	3	0.0	1.0080
7668	opls_883	1	NGb	H2D	3	0.0	1.0080
7669	opls_884	1	NGb	H2E	3	0.0	1.0080
7670	opls_885	1	NGb	H2F	3	0.0	1.0080
7671	opls_886	1	NGb	H2G	3	0.0	1.0080
7672	opls_887	1	NGb	H2H	3	0.0	1.0080
7673	opls_888	1	NGb	H2I	3	0.0	1.0080
7674	opls_889	1	NGb	H2J	3	0.0	1.0080
7675	opls_890	1	NGb	H2K	3	0.0	1.0080
7676	opls_891	1	NGb	H2M	3	0.0	1.0080
7677	opls_892	1	NGb	H2N	3	0.0	1.0080
7678	opls_893	1	NGb	H2O	3	0.0	1.0080
7679	opls_894	1	NGb	H2P	3	0.0	1.0080
7680	opls_895	1	NGb	H2Q	3	0.0	1.0080
7681	opls_896	1	NGb	H2R	3	0.0	1.0080
7682	opls_897	1	NGb	H2S	3	0.0	1.0080
7683	opls_898	1	NGb	H2T	4	0.0	1.0080
7684	opls_899	1	NGb	H2U	4	0.0	1.0080
7685	opls_800	1	NGb	C00	1	0.0	12.0110
7686	opls_801	1	NGb	N01	1	0.0	14.0070
7687	opls_802	1	NGb	C02	1	0.0	12.0110
7688	opls_803	1	NGb	C03	1	0.0	12.0110
7689	opls_804	1	NGb	O04	1	0.0	15.9990
7690	opls_805	1	NGb	C05	1	0.0	12.0110
7691	opls_806	1	NGb	C06	1	0.0	12.0110
7692	opls_807	1	NGb	C07	1	0.0	12.0110
7693	opls_808	1	NGb	C08	1	0.0	12.0110
7694	opls_809	1	NGb	C09	1	0.0	12.0110
7695	opls_810	1	NGb	C0A	1	0.0	12.0110
7696	opls_811	1	NGb	C0B	1	0.0	12.0110
7697	opls_812	1	NGb	C0C	1	0.0	12.0110
7698	opls_new	1	NGb	DUM	1	0.0	1.0
7699	opls_814	1	NGb	C0E	1	0.0	12.0110
7700	opls_815	1	NGb	C0F	1	0.0	12.0110
7701	opls_816	1	NGb	C0G	1	0.0	12.0110
7702	opls_817	1	NGb	C0H	1	0.0	12.0110
7703	opls_818	1	NGb	C0I	1	0.0	12.0110
7704	opls_819	1	NGb	C0J	1	0.0	12.0110
7705	opls_820	1	NGb	C0K	1	0.0	12.0110
7706	opls_821	1	NGb	C0M	1	0.0	12.0110
7707	opls_822	1	NGb	C0N	1	0.0	12.0110
7708	opls_823	1	NGb	C0O	1	0.0	12.0110
7709	opls_824	1	NGb	C0P	1	0.0	12.0110
7710	opls_825	1	NGb	C0Q	1	0.0	12.0110
7711	opls_826	1	NGb	C0R	1	0.0	12.0110
7712	opls_827	1	NGb	C0S	1	0.0	12.0110
7713	opls_828	1	NGb	C0T	1	0.0	12.0110
7714	opls_829	1	NGb	C0U	1	0.0	12.0110
7715	opls_830	1	NGb	C0V	1	0.0	12.0110
7716	opls_831	1	NGb	C0W	1	0.0	12.0110
7717	opls_832	1	NGb	C0X	2	0.0	12.0110
7718	opls_833	1	NGb	N0Y	2	0.0	14.0070
7719	opls_834	1	NGb	C0Z	2	0.0	12.0110
7720	opls_835	1	NGb	C10	2	0.0	12.0110
7721	opls_836	1	NGb	C11	2	0.0	12.0110
7722	opls_837	1	NGb	N12	2	0.0	14.0070
7723	opls_838	1	NGb	C13	2	0.0	12.0110
7724	opls_839	1	NGb	N14	2	0.0	14.0070
7725	opls_840	1	NGb	O15	2	0.0	15.9990
7726	opls_841	1	NGb	C16	2	0.0	12.0110
7727	opls_842	1	NGb	C17	2	0.0	12.0110
7728	opls_843	1	NGb	C18	2	0.0	12.0110
7729	opls_844	1	NGb	C19	2	0.0	12.0110
7730	opls_845	1	NGb	C1A	2	0.0	12.0110
7731	opls_846	1	NGb	C1B	2	0.0	12.0110
7732	opls_847	1	NGb	C1C	2	0.0	12.0110
7733	opls_848	1	NGb	C1D	2	0.0	12.0110
7734	opls_849	1	NGb	F1E	2	0.0	18.9984
7735	opls_850	1	NGb	F1F	2	0.0	18.9984
7736	opls_851	1	NGb	F1G	2	0.0	18.9984
7737	opls_852	1	NGb	C1H	2	0.0	12.0110
7738	opls_853	1	NGb	C1I	2	0.0	12.0110
7739	opls_854	1	NGb	C1J	2	0.0	12.0110
7740	opls_855	1	NGb	C1K	2	0.0	12.0110
7741	opls_856	1	NGb	C1M	2	0.0	12.0110
7742	opls_857	1	NGb	C1N	2	0.0	12.0110
7743	opls_858	1	NGb	C1O	2	0.0	12.0110
7744	opls_859	1	NGb	H1P	2	0.0	1.0080
7745	opls_860	1	NGb	H1Q	2	0.0	1.0080
7746	opls_861	1	NGb	H1R	2	0.0	1.0080
7747	opls_862	1	NGb	H1S	2	0.0	1.0080
7748	opls_863	1	NGb	H1T	2	0.0	1.0080
7749	opls_864	1	NGb	H1U	2	0.0	1.0080
7750	opls_865	1	NGb	H1V	3	0.0	1.0080
7751	opls_866	1	NGb	H1W	3	0.0	1.0080
7752	opls_867	1	NGb	H1X	3	0.0	1.0080
7753	opls_868	1	NGb	H1Y	3	0.0	1.0080
7754	opls_869	1	NGb	H1Z	3	0.0	1.0080
7755	opls_new	1	NGb	DUM	1	0.0	1.0
7756	opls_871	1	NGb	H21	3	0.0	1.0080
7757	opls_872	1	NGb	H22	3	0.0	1.0080
7758	opls_873	1	NGb	H23	3	0.0	1.0080
7759	opls_874	1	NGb	H24	3	0.0	1.0080
7760	opls_875	1	NGb	H25	3	0.0	1.0080
7761	opls_876	1	NGb	H26	3	0.0	1.0080
7762	opls_877	1	NGb	H27	3	0.0	1.0080
7763	opls_878	1	NGb	H28	3	0.0	1.0080
7764	opls_879	1	NGb	H29	3	0.0	1.0080
7765	opls_880	1	NGb	H2A	3	0.0	1.0080
7766	opls_881	1	NGb	H2B	3	0.0	1.0080
7767	opls_882	1	NGb	H2C	3	0.0	1.0080
7768	opls_883	1	NGb	H2D	3	0.0	1.0080
7769	opls_884	1	NGb	H2E	3	0.0	1.0080
7770	opls_885	1	NGb	H2F	3	0.0	1.0080
7771	opls_886	1	NGb	H2G	3	0.0	1.0080
7772	opls_887	1	NGb	H2H	3	0.0	1.0080
7773	opls_888	1	NGb	H2I	3	0.0	1.0080
7774	opls_889	1	NGb	H2J	3	0.0	1.0080
7775	opls_890	1	NGb	H2K	3	0.0	1.0080
7776	opls_891	1	NGb	H2M	3	0.0	1.0080
7777	opls_892	1	NGb	H2N	3	0.0	1.0080
7778	opls_893	1	NGb	H2O	3	0.0	1.0080
7779	opls_894	1	NGb	H2P	3	0.0	1.0080
7780	opls_895	1	NGb	H2Q	3	0.0	1.0080
7781	opls_896	1	NGb	H2R	3	0.0	1.0080
7782	opls_897	1	NGb	H2S	3	0.0	1.0080
7783	opls_898	1	NGb	H2T	4	0.0	1.0080
7784	opls_899	1	NGb	H2U	4	0.0	1.0080
7785	opls_800	1	NGb	C00	1	0.0	12.0110
7786	opls_801	1	NGb	N01	1	0.0	14.0070
7787	opls_802	1	NGb	C02	1	0.0	12.0110
7788	opls_803	1	NGb	C03	1	0.0	12.0110
7789	opls_804	1	NGb	O04	1	0.0	15.9990
7790	opls_805	1	NGb	C05	1	0.0	12.0110
7791	opls_806	1	NGb	C06	1	0.0	12.0110
7792	opls_807	1	NGb	C07	1	0.0	12.0110
7793	opls_808	1	NGb	C08	1	0.0	12.0110
7794	opls_809	1	NGb	C09	1	0.0	12.0110
7795	opls_810	1	NGb	C0A	1	0.0	12.0110
7796	opls_811	1	NGb	C0B	1	0.0	12.0110
7797	opls_812	1	NGb	C0C	1	0.0	12.0110
7798	opls_new	1	NGb	DUM	1	0.0	1.0
7799	opls_814	1	NGb	C0E	1	0.0	12.0110
7800	opls_815	1	NGb	C0F	1	0.0	12.0110
7801	opls_816	1	NGb	C0G	1	0.0	12.0110
7802	opls_817	1	NGb	C0H	1	0.0	12.0110
7803	opls_818	1	NGb	C0I	1	0.0	12.0110
7804	opls_819	1	NGb	C0J	1	0.0	12.0110
7805	opls_820	1	NGb	C0K	1	0.0	12.0110
7806	opls_821	1	NGb	C0M	1	0.0	12.0110
7807	opls_822	1	NGb	C0N	1	0.0	12.0110
7808	opls_823	1	NGb	C0O	1	0.0	12.0110
7809	opls_824	1	NGb	C0P	1	0.0	12.0110
7810	opls_825	1	NGb	C0Q	1	0.0	12.0110
7811	opls_826	1	NGb	C0R	1	0.0	12.0110
7812	opls_827	1	NGb	C0S	1	0.0	12.0110
7813	opls_828	1	NGb	C0T	1	0.0	12.0110
7814	opls_829	1	NGb	C0U	1	0.0	12.0110
7815	opls_830	1	NGb	C0V	1	0.0	12.0110
7816	opls_831	1	NGb	C0W	1	0.0	12.0110
7817	opls_832	1	NGb	C0X	2	0.0	12.0110
7818	opls_833	1	NGb	N0Y	2	0.0	14.0070
7819	opls_834	1	NGb	C0Z	2	0.0	12.0110
7820	opls_835	1	NGb	C10	2	0.0	12.0110
7821	opls_836	1	NGb	C11	2	0.0	12.0110
7822	opls_837	1	NGb	N12	2	0.0	14.0070
7823	opls_838	1	NGb	C13	2	0.0	12.0110
7824	opls_839	1	NGb	N14	2	0.0	14.0070
7825	opls_840	1	NGb	O15	2	0.0	15.9990
7826	opls_841	1	NGb	C16	2	0.0	12.0110
7827	opls_842	1	NGb	C17	2	0.0	12.0110
7828	opls_843	1	NGb	C18	2	0.0	12.0110
7829	opls_844	1	NGb	C19	2	0.0	12.0110
7830	opls_845	1	NGb	C1A	2	0.0	12.0110
7831	opls_846	1	NGb	C1B	2	0.0	12.0110
7832	opls_847	1	NGb	C1C	2	0.0	12.0110
7833	opls_848	1	NGb	C1D	2	0.0	12.0110
7834	opls_849	1	NGb	F1E	2	0.0	18.9984
7835	opls_850	1	NGb	F1F	2	0.0	18.9984
7836	opls_851	1	NGb	F1G	2	0.0	18.9984
7837	opls_852	1	NGb	C1H	2	0.0	12.0110
7838	opls_853	1	NGb	C1I	2	0.0	12.0110
7839	opls_854	1	NGb	C1J	2	0.0	12.0110
7840	opls_855	1	NGb	C1K	2	0.0	12.0110
7841	opls_856	1	NGb	C1M	2	0.0	12.0110
7842	opls_857	1	NGb	C1N	2	0.0	12.0110
7843	opls_858	1	NGb	C1O	2	0.0	12.0110
7844	opls_859	1	NGb	H1P	2	0.0	1.0080
7845	opls_860	1	NGb	H1Q	2	0.0	1.0080
7846	opls_861	1	NGb	H1R	2	0.0	1.0080
7847	opls_862	1	NGb	H1S	2	0.0	1.0080
7848	opls_863	1	NGb	H1T	2	0.0	1.0080
7849	opls_864	1	NGb	H1U	2	0.0	1.0080
7850	opls_865	1	NGb	H1V	3	0.0	1.0080
7851	opls_866	1	NGb	H1W	3	0.0	1.0080
7852	opls_867	1	NGb	H1X	3	0.0	1.0080
7853	opls_868	1	NGb	H1Y	3	0.0	1.0080
7854	opls_869	1	NGb	H1Z	3	0.0	1.0080
7855	opls_new	1	NGb	DUM	1	0.0	1.0
7856	opls_871	1	NGb	H21	3	0.0	1.0080
7857	opls_872	1	NGb	H22	3	0.0	1.0080
7858	opls_873	1	NGb	H23	3	0.0	1.0080
7859	opls_874	1	NGb	H24	3	0.0	1.0080
7860	opls_875	1	NGb	H25	3	0.0	1.0080
7861	opls_876	1	NGb	H26	3	0.0	1.0080
7862	opls_877	1	NGb	H27	3	0.0	1.0080
7863	opls_878	1	NGb	H28	3	0.0	1.0080
7864	opls_879	1	NGb	H29	3	0.0	1.0080
7865	opls_880	1	NGb	H2A	3	0.0	1.0080
7866	opls_881	1	NGb	H2B	3	0.0	1.0080
7867	opls_882	1	NGb	H2C	3	0.0	1.0080
7868	opls_883	1	NGb	H2D	3	0.0	1.0080
7869	opls_884	1	NGb	H2E	3	0.0	1.0080
7870	opls_885	1	NGb	H2F	3	0.0	1.0080
7871	opls_886	1	NGb	H2G	3	0.0	1.0080
7872	opls_887	1	NGb	H2H	3	0.0	1.0080
7873	opls_888	1	NGb	H2I	3	0.0	1.0080
7874	opls_889	1	NGb	H2J	3	0.0	1.0080
7875	opls_890	1	NGb	H2K	3	0.0	1.0080
7876	opls_891	1	NGb	H2M	3	0.0	1.0080
7877	opls_892	1	NGb	H2N	3	0.0	1.0080
7878	opls_893	1	NGb	H2O	3	0.0	1.0080
7879	opls_894	1	NGb	H2P	3	0.0	1.0080
7880	opls_895	1	NGb	H2Q	3	0.0	1.0080
7881	opls_896	1	NGb	H2R	3	0.0	1.0080
7882	opls_897	1	NGb	H2S	3	0.0	1.0080
7883	opls_898	1	NGb	H2T	4	0.0	1.0080
7884	opls_899	1	NGb	H2U	4	0.0	1.0080
7885	opls_800	1	NGb	C00	1	0.0	12.0110
7886	opls_801	1	NGb	N01	1	0.0	14.0070
7887	opls_802	1	NGb	C02	1	0.0	12.0110
7888	opls_803	1	NGb	C03	1	0.0	12.0110
7889	opls_804	1	NGb	O04	1	0.0	15.9990
7890	opls_805	1	NGb	C05	1	0.0	12.0110
7891	opls_806	1	NGb	C06	1	0.0	12.0110
7892	opls_807	1	NGb	C07	1	0.0	12.0110
7893	opls_808	1	NGb	C08	1	0.0	12.0110
7894	opls_809	1	NGb	C09	1	0.0	12.0110
7895	opls_810	1	NGb	C0A	1	0.0	12.0110
7896	opls_811	1	NGb	C0B	1	0.0	12.0110
7897	opls_812	1	NGb	C0C	1	0.0	12.0110
7898	opls_new	1	NGb	DUM	1	0.0	1.0
7899	opls_814	1	NGb	C0E	1	0.0	12.0110
7900	opls_815	1	NGb	C0F	1	0.0	12.0110
7901	opls_816	1	NGb	C0G	1	0.0	12.0110
7902	opls_817	1	NGb	C0H	1	0.0	12.0110
7903	opls_818	1	NGb	C0I	1	0.0	12.0110
7904	opls_819	1	NGb	C0J	1	0.0	12.0110
7905	opls_820	1	NGb	C0K	1	0.0	12.0110
7906	opls_821	1	NGb	C0M	1	0.0	12.0110
7907	opls_822	1	NGb	C0N	1	0.0	12.0110
7908	opls_823	1	NGb	C0O	1	0.0	12.0110
7909	opls_824	1	NGb	C0P	1	0.0	12.0110
7910	opls_825	1	NGb	C0Q	1	0.0	12.0110
7911	opls_826	1	NGb	C0R	1	0.0	12.0110
7912	opls_827	1	NGb	C0S	1	0.0	12.0110
7913	opls_828	1	NGb	C0T	1	0.0	12.0110
7914	opls_829	1	NGb	C0U	1	0.0	12.0110
7915	opls_830	1	NGb	C0V	1	0.0	12.0110
7916	opls_831	1	NGb	C0W	1	0.0	12.0110
7917	opls_832	1	NGb	C0X	2	0.0	12.0110
7918	opls_833	1	NGb	N0Y	2	0.0	14.0070
7919	opls_834	1	NGb	C0Z	2	0.0	12.0110
7920	opls_835	1	NGb	C10	2	0.0	12.0110
7921	opls_836	1	NGb	C11	2	0.0	12.0110
7922	opls_837	1	NGb	N12	2	0.0	14.0070
7923	opls_838	1	NGb	C13	2	0.0	12.0110
7924	opls_839	1	NGb	N14	2	0.0	14.0070
7925	opls_840	1	NGb	O15	2	0.0	15.9990
7926	opls_841	1	NGb	C16	2	0.0	12.0110
7927	opls_842	1	NGb	C17	2	0.0	12.0110
7928	opls_843	1	NGb	C18	2	0.0	12.0110
7929	opls_844	1	NGb	C19	2	0.0	12.0110
7930	opls_845	1	NGb	C1A	2	0.0	12.0110
7931	opls_846	1	NGb	C1B	2	0.0	12.0110
7932	opls_847	1	NGb	C1C	2	0.0	12.0110
7933	opls_848	1	NGb	C1D	2	0.0	12.0110
7934	opls_849	1	NGb	F1E	2	0.0	18.9984
7935	opls_850	1	NGb	F1F	2	0.0	18.9984
7936	opls_851	1	NGb	F1G	2	0.0	18.9984
7937	opls_852	1	NGb	C1H	2	0.0	12.0110
7938	opls_853	1	NGb	C1I	2	0.0	12.0110
7939	opls_854	1	NGb	C1J	2	0.0	12.0110
7940	opls_855	1	NGb	C1K	2	0.0	12.0110
7941	opls_856	1	NGb	C1M	2	0.0	12.0110
7942	opls_857	1	NGb	C1N	2	0.0	12.0110
7943	opls_858	1	NGb	C1O	2	0.0	12.0110
7944	opls_859	1	NGb	H1P	2	0.0	1.0080
7945	opls_860	1	NGb	H1Q	2	0.0	1.0080
7946	opls_861	1	NGb	H1R	2	0.0	1.0080
7947	opls_862	1	NGb	H1S	2	0.0	1.0080
7948	opls_863	1	NGb	H1T	2	0.0	1.0080
7949	opls_864	1	NGb	H1U	2	0.0	1.0080
7950	opls_865	1	NGb	H1V	3	0.0	1.0080
7951	opls_866	1	NGb	H1W	3	0.0	1.0080
7952	opls_867	1	NGb	H1X	3	0.0	1.0080
7953	opls_868	1	NGb	H1Y	3	0.0	1.0080
7954	opls_869	1	NGb	H1Z	3	0.0	1.0080
7955	opls_new	1	NGb	DUM	1	0.0	1.0
7956	opls_871	1	NGb	H21	3	0.0	1.0080
7957	opls_872	1	NGb	H22	3	0.0	1.0080
7958	opls_873	1	NGb	H23	3	0.0	1.0080
7959	opls_874	1	NGb	H24	3	0.0	1.0080
7960	opls_875	1	NGb	H25	3	0.0	1.0080
7961	opls_876	1	NGb	H26	3	0.0	1.0080
7962	opls_877	1	NGb	H27	3	0.0	1.0080
7963	opls_878	1	NGb	H28	3	0.0	1.0080
7964	opls_879	1	NGb	H29	3	0.0	1.0080
7965	opls_880	1	NGb	H2A	3	0.0	1.0080
7966	opls_881	1	NGb	H2B	3	0.0	1.0080
7967	opls_882	1	NGb	H2C	3	0.0	1.0080
7968	opls_883	1	NGb	H2D	3	0.0	1.0080
7969	opls_884	1	NGb	H2E	3	0.0	1.0080
7970	opls_885	1	NGb	H2F	3	0.0	1.0080
7971	opls_886	1	NGb	H2G	3	0.0	1.0080
7972	opls_887	1	NGb	H2H	3	0.0	1.0080
7973	opls_888	1	NGb	H2I	3	0.0	1.0080
7974	opls_889	1	NGb	H2J	3	0.0	1.0080
7975	opls_890	1	NGb	H2K	3	0.0	1.0080
7976	opls_891	1	NGb	H2M	3	0.0	1.0080
7977	opls_892	1	NGb	H2N	3	0.0	1.0080
7978	opls_893	1	NGb	H2O	3	0.0	1.0080
7979	opls_894	1	NGb	H2P	3	0.0	1.0080
7980	opls_895	1	NGb	H2Q	3	0.0	1.0080
7981	opls_896	1	NGb	H2R	3	0.0	1.0080
7982	opls_897	1	NGb	H2S	3	0.0	1.0080
7983	opls_898	1	NGb	H2T	4	0.0	1.0080
7984	opls_899	1	NGb	H2U	4	0.0	1.0080
7985	opls_800	1	NGb	C00	1	0.0	12.0110
7986	opls_801	1	NGb	N01	1	0.0	14.0070
7987	opls_802	1	NGb	C02	1	0.0	12.0110
7988	opls_803	1	NGb	C03	1	0.0	12.0110
7989	opls_804	1	NGb	O04	1	0.0	15.9990
7990	opls_805	1	NGb	C05	1	0.0	12.0110
7991	opls_806	1	NGb	C06	1	0.0	12.0110
7992	opls_807	1	NGb	C07	1	0.0	12.0110
7993	opls_808	1	NGb	C08	1	0.0	12.0110
7994	opls_809	1	NGb	C09	1	0.0	12.0110
7995	opls_810	1	NGb	C0A	1	0.0	12.0110
7996	opls_811	1	NGb	C0B	1	0.0	12.0110
7997	opls_812	1	NGb	C0C	1	0.0	12.0110
7998	opls_new	1	NGb	DUM	1	0.0	1.0
7999	opls_814	1	NGb	C0E	1	0.0	12.0110
8000	opls_815	1	NGb	C0F	1	0.0	12.0110
8001	opls_816	1	NGb	C0G	1	0.0	12.0110
8002	opls_817	1	NGb	C0H	1	0.0	12.0110
8003	opls_818	1	NGb	C0I	1	0.0	12.0110
8004	opls_819	1	NGb	C0J	1	0.0	12.0110
8005	opls_820	1	NGb	C0K	1	0.0	12.0110
8006	opls_821	1	NGb	C0M	1	0.0	12.0110
8007	opls_822	1	NGb	C0N	1	0.0	12.0110
8008	opls_823	1	NGb	C0O	1	0.0	12.0110
8009	opls_824	1	NGb	C0P	1	0.0	12.0110
8010	opls_825	1	NGb	C0Q	1	0.0	12.0110
8011	opls_826	1	NGb	C0R	1	0.0	12.0110
8012	opls_827	1	NGb	C0S	1	0.0	12.0110
8013	opls_828	1	NGb	C0T	1	0.0	12.0110
8014	opls_829	1	NGb	C0U	1	0.0	12.0110
8015	opls_830	1	NGb	C0V	1	0.0	12.0110
8016	opls_831	1	NGb	C0W	1	0.0	12.0110
8017	opls_832	1	NGb	C0X	2	0.0	12.0110
8018	opls_833	1	NGb	N0Y	2	0.0	14.0070
8019	opls_834	1	NGb	C0Z	2	0.0	12.0110
8020	opls_835	1	NGb	C10	2	0.0	12.0110
8021	opls_836	1	NGb	C11	2	0.0	12.0110
8022	opls_837	1	NGb	N12	2	0.0	14.0070
8023	opls_838	1	NGb	C13	2	0.0	12.0110
8024	opls_839	1	NGb	N14	2	0.0	14.0070
8025	opls_840	1	NGb	O15	2	0.0	15.9990
8026	opls_841	1	NGb	C16	2	0.0	12.0110
8027	opls_842	1	NGb	C17	2	0.0	12.0110
8028	opls_843	1	NGb	C18	2	0.0	12.0110
8029	opls_844	1	NGb	C19	2	0.0	12.0110
8030	opls_845	1	NGb	C1A	2	0.0	12.0110
8031	opls_846	1	NGb	C1B	2	0.0	12.0110
8032	opls_847	1	NGb	C1C	2	0.0	12.0110
8033	opls_848	1	NGb	C1D	2	0.0	12.0110
8034	opls_849	1	NGb	F1E	2	0.0	18.9984
8035	opls_850	1	NGb	F1F	2	0.0	18.9984
8036	opls_851	1	NGb	F1G	2	0.0	18.9984
8037	opls_852	1	NGb	C1H	2	0.0	12.0110
8038	opls_853	1	NGb	C1I	2	0.0	12.0110
8039	opls_854	1	NGb	C1J	2	0.0	12.0110
8040	opls_855	1	NGb	C1K	2	0.0	12.0110
8041	opls_856	1	NGb	C1M	2	0.0	12.0110
8042	opls_857	1	NGb	C1N	2	0.0	12.0110
8043	opls_858	1	NGb	C1O	2	0.0	12.0110
8044	opls_859	1	NGb	H1P	2	0.0	1.0080
8045	opls_860	1	NGb	H1Q	2	0.0	1.0080
8046	opls_861	1	NGb	H1R	2	0.0	1.0080
8047	opls_862	1	NGb	H1S	2	0.0	1.0080
8048	opls_863	1	NGb	H1T	2	0.0	1.0080
8049	opls_864	1	NGb	H1U	2	0.0	1.0080
8050	opls_865	1	NGb	H1V	3	0.0	1.0080
8051	opls_866	1	NGb	H1W	3	0.0	1.0080
8052	opls_867	1	NGb	H1X	3	0.0	1.0080
8053	opls_868	1	NGb	H1Y	3	0.0	1.0080
8054	opls_869	1	NGb	H1Z	3	0.0	1.0080
8055	opls_new	1	NGb	DUM	1	0.0	1.0
8056	opls_871	1	NGb	H21	3	0.0	1.0080
8057	opls_872	1	NGb	H22	3	0.0	1.0080
8058	opls_873	1	NGb	H23	3	0.0	1.0080
8059	opls_874	1	NGb	H24	3	0.0	1.0080
8060	opls_875	1	NGb	H25	3	0.0	1.0080
8061	opls_876	1	NGb	H26	3	0.0	1.0080
8062	opls_877	1	NGb	H27	3	0.0	1.0080
8063	opls_878	1	NGb	H28	3	0.0	1.0080
8064	opls_879	1	NGb	H29	3	0.0	1.0080
8065	opls_880	1	NGb	H2A	3	0.0	1.0080
8066	opls_881	1	NGb	H2B	3	0.0	1.0080
8067	opls_882	1	NGb	H2C	3	0.0	1.0080
8068	opls_883	1	NGb	H2D	3	0.0	1.0080
8069	opls_884	1	NGb	H2E	3	0.0	1.0080
8070	opls_885	1	NGb	H2F	3	0.0	1.0080
8071	opls_886	1	NGb	H2G	3	0.0	1.0080
8072	opls_887	1	NGb	H2H	3	0.0	1.0080
8073	opls_888	1	NGb	H2I	3	0.0	1.0080
8074	opls_889	1	NGb	H2J	3	0.0	1.0080
8075	opls_890	1	NGb	H2K	3	0.0	1.0080
8076	opls_891	1	NGb	H2M	3	0.0	1.0080
8077	opls_892	1	NGb	H2N	3	0.0	1.0080
8078	opls_893	1	NGb	H2O	3	0.0	1.0080
8079	opls_894	1	NGb	H2P	3	0.0	1.0080
8080	opls_895	1	NGb	H2Q	3	0.0	1.0080
8081	opls_896	1	NGb	H2R	3	0.0	1.0080
8082	opls_897	1	NGb	H2S	3	0.0	1.0080
8083	opls_898	1	NGb	H2T	4	0.0	1.0080
8084	opls_899	1	NGb	H2U	4	0.0	1.0080
8085	opls_800	1	NGb	C00	1	0.0	12.0110
8086	opls_801	1	NGb	N01	1	0.0	14.0070
8087	opls_802	1	NGb	C02	1	0.0	12.0110
8088	opls_803	1	NGb	C03	1	0.0	12.0110
8089	opls_804	1	NGb	O04	1	0.0	15.9990
8090	opls_805	1	NGb	C05	1	0.0	12.0110
8091	opls_806	1	NGb	C06	1	0.0	12.0110
8092	opls_807	1	NGb	C07	1	0.0	12.0110
8093	opls_808	1	NGb	C08	1	0.0	12.0110
8094	opls_809	1	NGb	C09	1	0.0	12.0110
8095	opls_810	1	NGb	C0A	1	0.0	12.0110
8096	opls_811	1	NGb	C0B	1	0.0	12.0110
8097	opls_812	1	NGb	C0C	1	0.0	12.0110
8098	opls_new	1	NGb	DUM	1	0.0	1.0
8099	opls_814	1	NGb	C0E	1	0.0	12.0110
8100	opls_815	1	NGb	C0F	1	0.0	12.0110
8101	opls_816	1	NGb	C0G	1	0.0	12.0110
8102	opls_817	1	NGb	C0H	1	0.0	12.0110
8103	opls_818	1	NGb	C0I	1	0.0	12.0110
8104	opls_819	1	NGb	C0J	1	0.0	12.0110
8105	opls_820	1	NGb	C0K	1	0.0	12.0110
8106	opls_821	1	NGb	C0M	1	0.0	12.0110
8107	opls_822	1	NGb	C0N	1	0.0	12.0110
8108	opls_823	1	NGb	C0O	1	0.0	12.0110
8109	opls_824	1	NGb	C0P	1	0.0	12.0110
8110	opls_825	1	NGb	C0Q	1	0.0	12.0110
8111	opls_826	1	NGb	C0R	1	0.0	12.0110
8112	opls_827	1	NGb	C0S	1	0.0	12.0110
8113	opls_828	1	NGb	C0T	1	0.0	12.0110
8114	opls_829	1	NGb	C0U	1	0.0	12.0110
8115	opls_830	1	NGb	C0V	1	0.0	12.0110
8116	opls_831	1	NGb	C0W	1	0.0	12.0110
8117	opls_832	1	NGb	C0X	2	0.0	12.0110
8118	opls_833	1	NGb	N0Y	2	0.0	14.0070
8119	opls_834	1	NGb	C0Z	2	0.0	12.0110
8120	opls_835	1	NGb	C10	2	0.0	12.0110
8121	opls_836	1	NGb	C11	2	0.0	12.0110
8122	opls_837	1	NGb	N12	2	0.0	14.0070
8123	opls_838	1	NGb	C13	2	0.0	12.0110
8124	opls_839	1	NGb	N14	2	0.0	14.0070
8125	opls_840	1	NGb	O15	2	0.0	15.9990
8126	opls_841	1	NGb	C16	2	0.0	12.0110
8127	opls_842	1	NGb	C17	2	0.0	12.0110
8128	opls_843	1	NGb	C18	2	0.0	12.0110
8129	opls_844	1	NGb	C19	2	0.0	12.0110
8130	opls_845	1	NGb	C1A	2	0.0	12.0110
8131	opls_846	1	NGb	C1B	2	0.0	12.0110
8132	opls_847	1	NGb	C1C	2	0.0	12.0110
8133	opls_848	1	NGb	C1D	2	0.0	12.0110
8134	opls_849	1	NGb	F1E	2	0.0	18.9984
8135	opls_850	1	NGb	F1F	2	0.0	18.9984
8136	opls_851	1	NGb	F1G	2	0.0	18.9984
8137	opls_852	1	NGb	C1H	2	0.0	12.0110
8138	opls_853	1	NGb	C1I	2	0.0	12.0110
8139	opls_854	1	NGb	C1J	2	0.0	12.0110
8140	opls_855	1	NGb	C1K	2	0.0	12.0110
8141	opls_856	1	NGb	C1M	2	0.0	12.0110
8142	opls_857	1	NGb	C1N	2	0.0	12.0110
8143	opls_858	1	NGb	C1O	2	0.0	12.0110
8144	opls_859	1	NGb	H1P	2	0.0	1.0080
8145	opls_860	1	NGb	H1Q	2	0.0	1.0080
8146	opls_861	1	NGb	H1R	2	0.0	1.0080
8147	opls_862	1	NGb	H1S	2	0.0	1.0080
8148	opls_863	1	NGb	H1T	2	0.0	1.0080
8149	opls_864	1	NGb	H1U	2	0.0	1.0080
8150	opls_865	1	NGb	H1V	3	0.0	1.0080
8151	opls_866	1	NGb	H1W	3	0.0	1.0080
8152	opls_867	1	NGb	H1X	3	0.0	1.0080
8153	opls_868	1	NGb	H1Y	3	0.0	1.0080
8154	opls_869	1	NGb	H1Z	3	0.0	1.0080
8155	opls_new	1	NGb	DUM	1	0.0	1.0
8156	opls_871	1	NGb	H21	3	0.0	1.0080
8157	opls_872	1	NGb	H22	3	0.0	1.0080
8158	opls_873	1	NGb	H23	3	0.0	1.0080
8159	opls_874	1	NGb	H24	3	0.0	1.0080
8160	opls_875	1	NGb	H25	3	0.0	1.0080
8161	opls_876	1	NGb	H26	3	0.0	1.0080
8162	opls_877	1	NGb	H27	3	0.0	1.0080
8163	opls_878	1	NGb	H28	3	0.0	1.0080
8164	opls_879	1	NGb	H29	3	0.0	1.0080
8165	opls_880	1	NGb	H2A	3	0.0	1.0080
8166	opls_881	1	NGb	H2B	3	0.0	1.0080
8167	opls_882	1	NGb	H2C	3	0.0	1.0080
8168	opls_883	1	NGb	H2D	3	0.0	1.0080
8169	opls_884	1	NGb	H2E	3	0.0	1.0080
8170	opls_885	1	NGb	H2F	3	0.0	1.0080
8171	opls_886	1	NGb	H2G	3	0.0	1.0080
8172	opls_887	1	NGb	H2H	3	0.0	1.0080
8173	opls_888	1	NGb	H2I	3	0.0	1.0080
8174	opls_889	1	NGb	H2J	3	0.0	1.0080
8175	opls_890	1	NGb	H2K	3	0.0	1.0080
8176	opls_891	1	NGb	H2M	3	0.0	1.0080
8177	opls_892	1	NGb	H2N	3	0.0	1.0080
8178	opls_893	1	NGb	H2O	3	0.0	1.0080
8179	opls_894	1	NGb	H2P	3	0.0	1.0080
8180	opls_895	1	NGb	H2Q	3	0.0	1.0080
8181	opls_896	1	NGb	H2R	3	0.0	1.0080
8182	opls_897	1	NGb	H2S	3	0.0	1.0080
8183	opls_898	1	NGb	H2T	4	0.0	1.0080
8184	opls_899	1	NGb	H2U	4	0.0	1.0080
8185	opls_800	1	NGb	C00	1	0.0	12.0110
8186	opls_801	1	NGb	N01	1	0.0	14.0070
8187	opls_802	1	NGb	C02	1	0.0	12.0110
8188	opls_803	1	NGb	C03	1	0.0	12.0110
8189	opls_804	1	NGb	O04	1	0.0	15.9990
8190	opls_805	1	NGb	C05	1	0.0	12.0110
8191	opls_806	1	NGb	C06	1	0.0	12.0110
8192	opls_807	1	NGb	C07	1	0.0	12.0110
8193	opls_808	1	NGb	C08	1	0.0	12.0110
8194	opls_809	1	NGb	C09	1	0.0	12.0110
8195	opls_810	1	NGb	C0A	1	0.0	12.0110
8196	opls_811	1	NGb	C0B	1	0.0	12.0110
8197	opls_812	1	NGb	C0C	1	0.0	12.0110
8198	opls_new	1	NGb	DUM	1	0.0	1.0
8199	opls_814	1	NGb	C0E	1	0.0	12.0110
8200	opls_815	1	NGb	C0F	1	0.0	12.0110
8201	opls_816	1	NGb	C0G	1	0.0	12.0110
8202	opls_817	1	NGb	C0H	1	0.0	12.0110
8203	opls_818	1	NGb	C0I	1	0.0	12.0110
8204	opls_819	1	NGb	C0J	1	0.0	12.0110
8205	opls_820	1	NGb	C0K	1	0.0	12.0110
8206	opls_821	1	NGb	C0M	1	0.0	12.0110
8207	opls_822	1	NGb	C0N	1	0.0	12.0110
8208	opls_823	1	NGb	C0O	1	0.0	12.0110
8209	opls_824	1	NGb	C0P	1	0.0	12.0110
8210	opls_825	1	NGb	C0Q	1	0.0	12.0110
8211	opls_826	1	NGb	C0R	1	0.0	12.0110
8212	opls_827	1	NGb	C0S	1	0.0	12.0110
8213	opls_828	1	NGb	C0T	1	0.0	12.0110
8214	opls_829	1	NGb	C0U	1	0.0	12.0110
8215	opls_830	1	NGb	C0V	1	0.0	12.0110
8216	opls_831	1	NGb	C0W	1	0.0	12.0110
8217	opls_832	1	NGb	C0X	2	0.0	12.0110
8218	opls_833	1	NGb	N0Y	2	0.0	14.0070
8219	opls_834	1	NGb	C0Z	2	0.0	12.0110
8220	opls_835	1	NGb	C10	2	0.0	12.0110
8221	opls_836	1	NGb	C11	2	0.0	12.0110
8222	opls_837	1	NGb	N12	2	0.0	14.0070
8223	opls_838	1	NGb	C13	2	0.0	12.0110
8224	opls_839	1	NGb	N14	2	0.0	14.0070
8225	opls_840	1	NGb	O15	2	0.0	15.9990
8226	opls_841	1	NGb	C16	2	0.0	12.0110
8227	opls_842	1	NGb	C17	2	0.0	12.0110
8228	opls_843	1	NGb	C18	2	0.0	12.0110
8229	opls_844	1	NGb	C19	2	0.0	12.0110
8230	opls_845	1	NGb	C1A	2	0.0	12.0110
8231	opls_846	1	NGb	C1B	2	0.0	12.0110
8232	opls_847	1	NGb	C1C	2	0.0	12.0110
8233	opls_848	1	NGb	C1D	2	0.0	12.0110
8234	opls_849	1	NGb	F1E	2	0.0	18.9984
8235	opls_850	1	NGb	F1F	2	0.0	18.9984
8236	opls_851	1	NGb	F1G	2	0.0	18.9984
8237	opls_852	1	NGb	C1H	2	0.0	12.0110
8238	opls_853	1	NGb	C1I	2	0.0	12.0110
8239	opls_854	1	NGb	C1J	2	0.0	12.0110
8240	opls_855	1	NGb	C1K	2	0.0	12.0110
8241	opls_856	1	NGb	C1M	2	0.0	12.0110
8242	opls_857	1	NGb	C1N	2	0.0	12.0110
8243	opls_858	1	NGb	C1O	2	0.0	12.0110
8244	opls_859	1	NGb	H1P	2	0.0	1.0080
8245	opls_860	1	NGb	H1Q	2	0.0	1.0080
8246	opls_861	1	NGb	H1R	2	0.0	1.0080
8247	opls_862	1	NGb	H1S	2	0.0	1.0080
8248	opls_863	1	NGb	H1T	2	0.0	1.0080
8249	opls_864	1	NGb	H1U	2	0.0	1.0080
8250	opls_865	1	NGb	H1V	3	0.0	1.0080
8251	opls_866	1	NGb	H1W	3	0.0	1.0080
8252	opls_867	1	NGb	H1X	3	0.0	1.0080
8253	opls_868	1	NGb	H1Y	3	0.0	1.0080
8254	opls_869	1	NGb	H1Z	3	0.0	1.0080
8255	opls_new	1	NGb	DUM	1	0.0	1.0
8256	opls_871	1	NGb	H21	3	0.0	1.0080
8257	opls_872	1	NGb	H22	3	0.0	1.0080
8258	opls_873	1	NGb	H23	3	0.0	1.0080
8259	opls_874	1	NGb	H24	3	0.0	1.0080
8260	opls_875	1	NGb	H25	3	0.0	1.0080
8261	opls_876	1	NGb	H26	3	0.0	1.0080
8262	opls_877	1	NGb	H27	3	0.0	1.0080
8263	opls_878	1	NGb	H28	3	0.0	1.0080
8264	opls_879	1	NGb	H29	3	0.0	1.0080
8265	opls_880	1	NGb	H2A	3	0.0	1.0080
8266	opls_881	1	NGb	H2B	3	0.0	1.0080
8267	opls_882	1	NGb	H2C	3	0.0	1.0080
8268	opls_883	1	NGb	H2D	3	0.0	1.0080
8269	opls_884	1	NGb	H2E	3	0.0	1.0080
8270	opls_885	1	NGb	H2F	3	0.0	1.0080
8271	opls_886	1	NGb	H2G	3	0.0	1.0080
8272	opls_887	1	NGb	H2H	3	0.0	1.0080
8273	opls_888	1	NGb	H2I	3	0.0	1.0080
8274	opls_889	1	NGb	H2J	3	0.0	1.0080
8275	opls_890	1	NGb	H2K	3	0.0	1.0080
8276	opls_891	1	NGb	H2M	3	0.0	1.0080
8277	opls_892	1	NGb	H2N	3	0.0	1.0080
8278	opls_893	1	NGb	H2O	3	0.0	1.0080
8279	opls_894	1	NGb	H2P	3	0.0	1.0080
8280	opls_895	1	NGb	H2Q	3	0.0	1.0080
8281	opls_896	1	NGb	H2R	3	0.0	1.0080
8282	opls_897	1	NGb	H2S	3	0.0	1.0080
8283	opls_898	1	NGb	H2T	4	0.0	1.0080
8284	opls_899	1	NGb	H2U	4	0.0	1.0080
8285	opls_800	1	NGb	C00	1	0.0	12.0110
8286	opls_801	1	NGb	N01	1	0.0	14.0070
8287	opls_802	1	NGb	C02	1	0.0	12.0110
8288	opls_803	1	NGb	C03	1	0.0	12.0110
8289	opls_804	1	NGb	O04	1	0.0	15.9990
8290	opls_805	1	NGb	C05	1	0.0	12.0110
8291	opls_806	1	NGb	C06	1	0.0	12.0110
8292	opls_807	1	NGb	C07	1	0.0	12.0110
8293	opls_808	1	NGb	C08	1	0.0	12.0110
8294	opls_809	1	NGb	C09	1	0.0	12.0110
8295	opls_810	1	NGb	C0A	1	0.0	12.0110
8296	opls_811	1	NGb	C0B	1	0.0	12.0110
8297	opls_812	1	NGb	C0C	1	0.0	12.0110
8298	opls_new	1	NGb	DUM	1	0.0	1.0
8299	opls_814	1	NGb	C0E	1	0.0	12.0110
8300	opls_815	1	NGb	C0F	1	0.0	12.0110
8301	opls_816	1	NGb	C0G	1	0.0	12.0110
8302	opls_817	1	NGb	C0H	1	0.0	12.0110
8303	opls_818	1	NGb	C0I	1	0.0	12.0110
8304	opls_819	1	NGb	C0J	1	0.0	12.0110
8305	opls_820	1	NGb	C0K	1	0.0	12.0110
8306	opls_821	1	NGb	C0M	1	0.0	12.0110
8307	opls_822	1	NGb	C0N	1	0.0	12.0110
8308	opls_823	1	NGb	C0O	1	0.0	12.0110
8309	opls_824	1	NGb	C0P	1	0.0	12.0110
8310	opls_825	1	NGb	C0Q	1	0.0	12.0110
8311	opls_826	1	NGb	C0R	1	0.0	12.0110
8312	opls_827	1	NGb	C0S	1	0.0	12.0110
8313	opls_828	1	NGb	C0T	1	0.0	12.0110
8314	opls_829	1	NGb	C0U	1	0.0	12.0110
8315	opls_830	1	NGb	C0V	1	0.0	12.0110
8316	opls_831	1	NGb	C0W	1	0.0	12.0110
8317	opls_832	1	NGb	C0X	2	0.0	12.0110
8318	opls_833	1	NGb	N0Y	2	0.0	14.0070
8319	opls_834	1	NGb	C0Z	2	0.0	12.0110
8320	opls_835	1	NGb	C10	2	0.0	12.0110
8321	opls_836	1	NGb	C11	2	0.0	12.0110
8322	opls_837	1	NGb	N12	2	0.0	14.0070
8323	opls_838	1	NGb	C13	2	0.0	12.0110
8324	opls_839	1	NGb	N14	2	0.0	14.0070
8325	opls_840	1	NGb	O15	2	0.0	15.9990
8326	opls_841	1	NGb	C16	2	0.0	12.0110
8327	opls_842	1	NGb	C17	2	0.0	12.0110
8328	opls_843	1	NGb	C18	2	0.0	12.0110
8329	opls_844	1	NGb	C19	2	0.0	12.0110
8330	opls_845	1	NGb	C1A	2	0.0	12.0110
8331	opls_846	1	NGb	C1B	2	0.0	12.0110
8332	opls_847	1	NGb	C1C	2	0.0	12.0110
8333	opls_848	1	NGb	C1D	2	0.0	12.0110
8334	opls_849	1	NGb	F1E	2	0.0	18.9984
8335	opls_850	1	NGb	F1F	2	0.0	18.9984
8336	opls_851	1	NGb	F1G	2	0.0	18.9984
8337	opls_852	1	NGb	C1H	2	0.0	12.0110
8338	opls_853	1	NGb	C1I	2	0.0	12.0110
8339	opls_854	1	NGb	C1J	2	0.0	12.0110
8340	opls_855	1	NGb	C1K	2	0.0	12.0110
8341	opls_856	1	NGb	C1M	2	0.0	12.0110
8342	opls_857	1	NGb	C1N	2	0.0	12.0110
8343	opls_858	1	NGb	C1O	2	0.0	12.0110
8344	opls_859	1	NGb	H1P	2	0.0	1.0080
8345	opls_860	1	NGb	H1Q	2	0.0	1.0080
8346	opls_861	1	NGb	H1R	2	0.0	1.0080
8347	opls_862	1	NGb	H1S	2	0.0	1.0080
8348	opls_863	1	NGb	H1T	2	0.0	1.0080
8349	opls_864	1	NGb	H1U	2	0.0	1.0080
8350	opls_865	1	NGb	H1V	3	0.0	1.0080
8351	opls_866	1	NGb	H1W	3	0.0	1.0080
8352	opls_867	1	NGb	H1X	3	0.0	1.0080
8353	opls_868	1	NGb	H1Y	3	0.0	1.0080
8354	opls_869	1	NGb	H1Z	3	0.0	1.0080
8355	opls_new	1	NGb	DUM	1	0.0	1.0
8356	opls_871	1	NGb	H21	3	0.0	1.0080
8357	opls_872	1	NGb	H22	3	0.0	1.0080
8358	opls_873	1	NGb	H23	3	0.0	1.0080
8359	opls_874	1	NGb	H24	3	0.0	1.0080
8360	opls_875	1	NGb	H25	3	0.0	1.0080
8361	opls_876	1	NGb	H26	3	0.0	1.0080
8362	opls_877	1	NGb	H27	3	0.0	1.0080
8363	opls_878	1	NGb	H28	3	0.0	1.0080
8364	opls_879	1	NGb	H29	3	0.0	1.0080
8365	opls_880	1	NGb	H2A	3	0.0	1.0080
8366	opls_881	1	NGb	H2B	3	0.0	1.0080
8367	opls_882	1	NGb	H2C	3	0.0	1.0080
8368	opls_883	1	NGb	H2D	3	0.0	1.0080
8369	opls_884	1	NGb	H2E	3	0.0	1.0080
8370	opls_885	1	NGb	H2F	3	0.0	1.0080
8371	opls_886	1	NGb	H2G	3	0.0	1.0080
8372	opls_887	1	NGb	H2H	3	0.0	1.0080
8373	opls_888	1	NGb	H2I	3	0.0	1.0080
8374	opls_889	1	NGb	H2J	3	0.0	1.0080
8375	opls_890	1	NGb	H2K	3	0.0	1.0080
8376	opls_891	1	NGb	H2M	3	0.0	1.0080
8377	opls_892	1	NGb	H2N	3	0.0	1.0080
8378	opls_893	1	NGb	H2O	3	0.0	1.0080
8379	opls_894	1	NGb	H2P	3	0.0	1.0080
8380	opls_895	1	NGb	H2Q	3	0.0	1.0080
8381	opls_896	1	NGb	H2R	3	0.0	1.0080
8382	opls_897	1	NGb	H2S	3	0.0	1.0080
8383	opls_898	1	NGb	H2T	4	0.0	1.0080
8384	opls_899	1	NGb	H2U	4	0.0	1.0080

[ bonds ]
2	1	1	0.1640	312963.200
3	1	1	0.1640	312963.200
4	1	1	0.1640	312963.200
5	4	1	0.1640	312963.200
6	5	1	0.1640	312963.200
7	5	1	0.1640	312963.200
8	5	1	0.1640	312963.200
9	8	1	0.1640	312963.200
10	9	1	0.1640	312963.200
11	9	1	0.1640	312963.200
12	9	1	0.1640	312963.200
13	12	1	0.1640	312963.200
14	13	1	0.1640	312963.200
15	13	1	0.1640	312963.200
16	15	1	0.1640	312963.200
17	16	1	0.1640	312963.200
18	17	1	0.1640	312963.200
19	18	1	0.1480	138908.800
20	18	1	0.1480	138908.800
21	18	1	0.1640	312963.200
22	13	1	0.1640	312963.200
23	22	1	0.1640	312963.200
24	23	1	0.1640	312963.200
25	24	1	0.1640	312963.200
26	25	1	0.1480	138908.800
27	25	1	0.1480	138908.800
28	25	1	0.1640	312963.200
30	29	1	0.1640	312963.200
31	29	1	0.1640	312963.200
32	29	1	0.1640	312963.200
33	32	1	0.1640	312963.200
34	33	1	0.1640	312963.200
35	33	1	0.1640	312963.200
36	33	1	0.1640	312963.200
37	36	1	0.1640	312963.200
38	37	1	0.1640	312963.200
39	37	1	0.1640	312963.200
40	37	1	0.1640	312963.200
41	40	1	0.1640	312963.200
42	41	1	0.1640	312963.200
43	41	1	0.1640	312963.200
44	43	1	0.1640	312963.200
45	44	1	0.1640	312963.200
46	45	1	0.1640	312963.200
47	46	1	0.1480	138908.800
48	46	1	0.1480	138908.800
49	46	1	0.1640	312963.200
50	41	1	0.1640	312963.200
51	50	1	0.1640	312963.200
52	51	1	0.1640	312963.200
53	52	1	0.1640	312963.200
54	53	1	0.1480	138908.800
55	53	1	0.1480	138908.800
56	53	1	0.1640	312963.200
58	57	1	0.1640	312963.200
59	57	1	0.1640	312963.200
60	57	1	0.1640	312963.200
61	60	1	0.1640	312963.200
62	61	1	0.1640	312963.200
63	61	1	0.1640	312963.200
64	61	1	0.1640	312963.200
65	64	1	0.1640	312963.200
66	65	1	0.1640	312963.200
67	65	1	0.1640	312963.200
68	65	1	0.1640	312963.200
69	68	1	0.1640	312963.200
70	69	1	0.1640	312963.200
71	69	1	0.1640	312963.200
72	71	1	0.1640	312963.200
73	72	1	0.1640	312963.200
74	73	1	0.1640	312963.200
75	74	1	0.1480	138908.800
76	74	1	0.1480	138908.800
77	74	1	0.1640	312963.200
78	69	1	0.1640	312963.200
79	78	1	0.1640	312963.200
80	79	1	0.1640	312963.200
81	80	1	0.1640	312963.200
82	81	1	0.1480	138908.800
83	81	1	0.1480	138908.800
84	81	1	0.1640	312963.200
86	85	1	0.1640	312963.200
87	85	1	0.1640	312963.200
88	85	1	0.1640	312963.200
89	88	1	0.1640	312963.200
90	89	1	0.1640	312963.200
91	89	1	0.1640	312963.200
92	89	1	0.1640	312963.200
93	92	1	0.1640	312963.200
94	93	1	0.1640	312963.200
95	93	1	0.1640	312963.200
96	93	1	0.1640	312963.200
97	96	1	0.1640	312963.200
98	97	1	0.1640	312963.200
99	97	1	0.1640	312963.200
100	99	1	0.1640	312963.200
101	100	1	0.1640	312963.200
102	101	1	0.1640	312963.200
103	102	1	0.1480	138908.800
104	102	1	0.1480	138908.800
105	102	1	0.1640	312963.200
106	97	1	0.1640	312963.200
107	106	1	0.1640	312963.200
108	107	1	0.1640	312963.200
109	108	1	0.1640	312963.200
110	109	1	0.1480	138908.800
111	109	1	0.1480	138908.800
112	109	1	0.1640	312963.200
114	113	1	0.1640	312963.200
115	113	1	0.1640	312963.200
116	113	1	0.1640	312963.200
117	116	1	0.1640	312963.200
118	117	1	0.1640	312963.200
119	117	1	0.1640	312963.200
120	117	1	0.1640	312963.200
121	120	1	0.1640	312963.200
122	121	1	0.1640	312963.200
123	121	1	0.1640	312963.200
124	121	1	0.1640	312963.200
125	124	1	0.1640	312963.200
126	125	1	0.1640	312963.200
127	125	1	0.1640	312963.200
128	127	1	0.1640	312963.200
129	128	1	0.1640	312963.200
130	129	1	0.1640	312963.200
131	130	1	0.1480	138908.800
132	130	1	0.1480	138908.800
133	130	1	0.1640	312963.200
134	125	1	0.1640	312963.200
135	134	1	0.1640	312963.200
136	135	1	0.1640	312963.200
137	136	1	0.1640	312963.200
138	137	1	0.1480	138908.800
139	137	1	0.1480	138908.800
140	137	1	0.1640	312963.200
142	141	1	0.1640	312963.200
143	141	1	0.1640	312963.200
144	141	1	0.1640	312963.200
145	144	1	0.1640	312963.200
146	145	1	0.1640	312963.200
147	145	1	0.1640	312963.200
148	145	1	0.1640	312963.200
149	148	1	0.1640	312963.200
150	149	1	0.1640	312963.200
151	149	1	0.1640	312963.200
152	149	1	0.1640	312963.200
153	152	1	0.1640	312963.200
154	153	1	0.1640	312963.200
155	153	1	0.1640	312963.200
156	155	1	0.1640	312963.200
157	156	1	0.1640	312963.200
158	157	1	0.1640	312963.200
159	158	1	0.1480	138908.800
160	158	1	0.1480	138908.800
161	158	1	0.1640	312963.200
162	153	1	0.1640	312963.200
163	162	1	0.1640	312963.200
164	163	1	0.1640	312963.200
165	164	1	0.1640	312963.200
166	165	1	0.1480	138908.800
167	165	1	0.1480	138908.800
168	165	1	0.1640	312963.200
170	169	1	0.1640	312963.200
171	169	1	0.1640	312963.200
172	169	1	0.1640	312963.200
173	172	1	0.1640	312963.200
174	173	1	0.1640	312963.200
175	173	1	0.1640	312963.200
176	173	1	0.1640	312963.200
177	176	1	0.1640	312963.200
178	177	1	0.1640	312963.200
179	177	1	0.1640	312963.200
180	177	1	0.1640	312963.200
181	180	1	0.1640	312963.200
182	181	1	0.1640	312963.200
183	181	1	0.1640	312963.200
184	183	1	0.1640	312963.200
185	184	1	0.1640	312963.200
186	185	1	0.1640	312963.200
187	186	1	0.1480	138908.800
188	186	1	0.1480	138908.800
189	186	1	0.1640	312963.200
190	181	1	0.1640	312963.200
191	190	1	0.1640	312963.200
192	191	1	0.1640	312963.200
193	192	1	0.1640	312963.200
194	193	1	0.1480	138908.800
195	193	1	0.1480	138908.800
196	193	1	0.1640	312963.200
198	197	1	0.1640	312963.200
199	197	1	0.1640	312963.200
200	197	1	0.1640	312963.200
201	200	1	0.1640	312963.200
202	201	1	0.1640	312963.200
203	201	1	0.1640	312963.200
204	201	1	0.1640	312963.200
205	204	1	0.1640	312963.200
206	205	1	0.1640	312963.200
207	205	1	0.1640	312963.200
208	205	1	0.1640	312963.200
209	208	1	0.1640	312963.200
210	209	1	0.1640	312963.200
211	209	1	0.1640	312963.200
212	211	1	0.1640	312963.200
213	212	1	0.1640	312963.200
214	213	1	0.1640	312963.200
215	214	1	0.1480	138908.800
216	214	1	0.1480	138908.800
217	214	1	0.1640	312963.200
218	209	1	0.1640	312963.200
219	218	1	0.1640	312963.200
220	219	1	0.1640	312963.200
221	220	1	0.1640	312963.200
222	221	1	0.1480	138908.800
223	221	1	0.1480	138908.800
224	221	1	0.1640	312963.200
226	225	1	0.1640	312963.200
227	225	1	0.1640	312963.200
228	225	1	0.1640	312963.200
229	228	1	0.1640	312963.200
230	229	1	0.1640	312963.200
231	229	1	0.1640	312963.200
232	229	1	0.1640	312963.200
233	232	1	0.1640	312963.200
234	233	1	0.1640	312963.200
235	233	1	0.1640	312963.200
236	233	1	0.1640	312963.200
237	236	1	0.1640	312963.200
238	237	1	0.1640	312963.200
239	237	1	0.1640	312963.200
240	239	1	0.1640	312963.200
241	240	1	0.1640	312963.200
242	241	1	0.1640	312963.200
243	242	1	0.1480	138908.800
244	242	1	0.1480	138908.800
245	242	1	0.1640	312963.200
246	237	1	0.1640	312963.200
247	246	1	0.1640	312963.200
248	247	1	0.1640	312963.200
249	248	1	0.1640	312963.200
250	249	1	0.1480	138908.800
251	249	1	0.1480	138908.800
252	249	1	0.1640	312963.200
254	253	1	0.1640	312963.200
255	253	1	0.1640	312963.200
256	253	1	0.1640	312963.200
257	256	1	0.1640	312963.200
258	257	1	0.1640	312963.200
259	257	1	0.1640	312963.200
260	257	1	0.1640	312963.200
261	260	1	0.1640	312963.200
262	261	1	0.1640	312963.200
263	261	1	0.1640	312963.200
264	261	1	0.1640	312963.200
265	264	1	0.1640	312963.200
266	265	1	0.1640	312963.200
267	265	1	0.1640	312963.200
268	267	1	0.1640	312963.200
269	268	1	0.1640	312963.200
270	269	1	0.1640	312963.200
271	270	1	0.1480	138908.800
272	270	1	0.1480	138908.800
273	270	1	0.1640	312963.200
274	265	1	0.1640	312963.200
275	274	1	0.1640	312963.200
276	275	1	0.1640	312963.200
277	276	1	0.1640	312963.200
278	277	1	0.1480	138908.800
279	277	1	0.1480	138908.800
280	277	1	0.1640	312963.200
282	281	1	0.1640	312963.200
283	281	1	0.1640	312963.200
284	281	1	0.1640	312963.200
285	284	1	0.1640	312963.200
286	285	1	0.1640	312963.200
287	285	1	0.1640	312963.200
288	285	1	0.1640	312963.200
289	288	1	0.1640	312963.200
290	289	1	0.1640	312963.200
291	289	1	0.1640	312963.200
292	289	1	0.1640	312963.200
293	292	1	0.1640	312963.200
294	293	1	0.1640	312963.200
295	293	1	0.1640	312963.200
296	295	1	0.1640	312963.200
297	296	1	0.1640	312963.200
298	297	1	0.1640	312963.200
299	298	1	0.1480	138908.800
300	298	1	0.1480	138908.800
301	298	1	0.1640	312963.200
302	293	1	0.1640	312963.200
303	302	1	0.1640	312963.200
304	303	1	0.1640	312963.200
305	304	1	0.1640	312963.200
306	305	1	0.1480	138908.800
307	305	1	0.1480	138908.800
308	305	1	0.1640	312963.200
310	309	1	0.1640	312963.200
311	309	1	0.1640	312963.200
312	309	1	0.1640	312963.200
313	312	1	0.1640	312963.200
314	313	1	0.1640	312963.200
315	313	1	0.1640	312963.200
316	313	1	0.1640	312963.200
317	316	1	0.1640	312963.200
318	317	1	0.1640	312963.200
319	317	1	0.1640	312963.200
320	317	1	0.1640	312963.200
321	320	1	0.1640	312963.200
322	321	1	0.1640	312963.200
323	321	1	0.1640	312963.200
324	323	1	0.1640	312963.200
325	324	1	0.1640	312963.200
326	325	1	0.1640	312963.200
327	326	1	0.1480	138908.800
328	326	1	0.1480	138908.800
329	326	1	0.1640	312963.200
330	321	1	0.1640	312963.200
331	330	1	0.1640	312963.200
332	331	1	0.1640	312963.200
333	332	1	0.1640	312963.200
334	333	1	0.1480	138908.800
335	333	1	0.1480	138908.800
336	333	1	0.1640	312963.200
338	337	1	0.1640	312963.200
339	337	1	0.1640	312963.200
340	337	1	0.1640	312963.200
341	340	1	0.1640	312963.200
342	341	1	0.1640	312963.200
343	341	1	0.1640	312963.200
344	341	1	0.1640	312963.200
345	344	1	0.1640	312963.200
346	345	1	0.1640	312963.200
347	345	1	0.1640	312963.200
348	345	1	0.1640	312963.200
349	348	1	0.1640	312963.200
350	349	1	0.1640	312963.200
351	349	1	0.1640	312963.200
352	351	1	0.1640	312963.200
353	352	1	0.1640	312963.200
354	353	1	0.1640	312963.200
355	354	1	0.1480	138908.800
356	354	1	0.1480	138908.800
357	354	1	0.1640	312963.200
358	349	1	0.1640	312963.200
359	358	1	0.1640	312963.200
360	359	1	0.1640	312963.200
361	360	1	0.1640	312963.200
362	361	1	0.1480	138908.800
363	361	1	0.1480	138908.800
364	361	1	0.1640	312963.200
366	365	1	0.1640	312963.200
367	365	1	0.1640	312963.200
368	365	1	0.1640	312963.200
369	368	1	0.1640	312963.200
370	369	1	0.1640	312963.200
371	369	1	0.1640	312963.200
372	369	1	0.1640	312963.200
373	372	1	0.1640	312963.200
374	373	1	0.1640	312963.200
375	373	1	0.1640	312963.200
376	373	1	0.1640	312963.200
377	376	1	0.1640	312963.200
378	377	1	0.1640	312963.200
379	377	1	0.1640	312963.200
380	379	1	0.1640	312963.200
381	380	1	0.1640	312963.200
382	381	1	0.1640	312963.200
383	382	1	0.1480	138908.800
384	382	1	0.1480	138908.800
385	382	1	0.1640	312963.200
386	377	1	0.1640	312963.200
387	386	1	0.1640	312963.200
388	387	1	0.1640	312963.200
389	388	1	0.1640	312963.200
390	389	1	0.1480	138908.800
391	389	1	0.1480	138908.800
392	389	1	0.1640	312963.200
394	393	1	0.1640	312963.200
395	393	1	0.1640	312963.200
396	393	1	0.1640	312963.200
397	396	1	0.1640	312963.200
398	397	1	0.1640	312963.200
399	397	1	0.1640	312963.200
400	397	1	0.1640	312963.200
401	400	1	0.1640	312963.200
402	401	1	0.1640	312963.200
403	401	1	0.1640	312963.200
404	401	1	0.1640	312963.200
405	404	1	0.1640	312963.200
406	405	1	0.1640	312963.200
407	405	1	0.1640	312963.200
408	407	1	0.1640	312963.200
409	408	1	0.1640	312963.200
410	409	1	0.1640	312963.200
411	410	1	0.1480	138908.800
412	410	1	0.1480	138908.800
413	410	1	0.1640	312963.200
414	405	1	0.1640	312963.200
415	414	1	0.1640	312963.200
416	415	1	0.1640	312963.200
417	416	1	0.1640	312963.200
418	417	1	0.1480	138908.800
419	417	1	0.1480	138908.800
420	417	1	0.1640	312963.200
422	421	1	0.1640	312963.200
423	421	1	0.1640	312963.200
424	421	1	0.1640	312963.200
425	424	1	0.1640	312963.200
426	425	1	0.1640	312963.200
427	425	1	0.1640	312963.200
428	425	1	0.1640	312963.200
429	428	1	0.1640	312963.200
430	429	1	0.1640	312963.200
431	429	1	0.1640	312963.200
432	429	1	0.1640	312963.200
433	432	1	0.1640	312963.200
434	433	1	0.1640	312963.200
435	433	1	0.1640	312963.200
436	435	1	0.1640	312963.200
437	436	1	0.1640	312963.200
438	437	1	0.1640	312963.200
439	438	1	0.1480	138908.800
440	438	1	0.1480	138908.800
441	438	1	0.1640	312963.200
442	433	1	0.1640	312963.200
443	442	1	0.1640	312963.200
444	443	1	0.1640	312963.200
445	444	1	0.1640	312963.200
446	445	1	0.1480	138908.800
447	445	1	0.1480	138908.800
448	445	1	0.1640	312963.200
450	449	1	0.1640	312963.200
451	449	1	0.1640	312963.200
452	449	1	0.1640	312963.200
453	452	1	0.1640	312963.200
454	453	1	0.1640	312963.200
455	453	1	0.1640	312963.200
456	453	1	0.1640	312963.200
457	456	1	0.1640	312963.200
458	457	1	0.1640	312963.200
459	457	1	0.1640	312963.200
460	457	1	0.1640	312963.200
461	460	1	0.1640	312963.200
462	461	1	0.1640	312963.200
463	461	1	0.1640	312963.200
464	463	1	0.1640	312963.200
465	464	1	0.1640	312963.200
466	465	1	0.1640	312963.200
467	466	1	0.1480	138908.800
468	466	1	0.1480	138908.800
469	466	1	0.1640	312963.200
470	461	1	0.1640	312963.200
471	470	1	0.1640	312963.200
472	471	1	0.1640	312963.200
473	472	1	0.1640	312963.200
474	473	1	0.1480	138908.800
475	473	1	0.1480	138908.800
476	473	1	0.1640	312963.200
478	477	1	0.1640	312963.200
479	477	1	0.1640	312963.200
480	477	1	0.1640	312963.200
481	480	1	0.1640	312963.200
482	481	1	0.1640	312963.200
483	481	1	0.1640	312963.200
484	481	1	0.1640	312963.200
485	484	1	0.1640	312963.200
486	485	1	0.1640	312963.200
487	485	1	0.1640	312963.200
488	485	1	0.1640	312963.200
489	488	1	0.1640	312963.200
490	489	1	0.1640	312963.200
491	489	1	0.1640	312963.200
492	491	1	0.1640	312963.200
493	492	1	0.1640	312963.200
494	493	1	0.1640	312963.200
495	494	1	0.1480	138908.800
496	494	1	0.1480	138908.800
497	494	1	0.1640	312963.200
498	489	1	0.1640	312963.200
499	498	1	0.1640	312963.200
500	499	1	0.1640	312963.200
501	500	1	0.1640	312963.200
502	501	1	0.1480	138908.800
503	501	1	0.1480	138908.800
504	501	1	0.1640	312963.200
506	505	1	0.1640	312963.200
507	505	1	0.1640	312963.200
508	505	1	0.1640	312963.200
509	508	1	0.1640	312963.200
510	509	1	0.1640	312963.200
511	509	1	0.1640	312963.200
512	509	1	0.1640	312963.200
513	512	1	0.1640	312963.200
514	513	1	0.1640	312963.200
515	513	1	0.1640	312963.200
516	513	1	0.1640	312963.200
517	516	1	0.1640	312963.200
518	517	1	0.1640	312963.200
519	517	1	0.1640	312963.200
520	519	1	0.1640	312963.200
521	520	1	0.1640	312963.200
522	521	1	0.1640	312963.200
523	522	1	0.1480	138908.800
524	522	1	0.1480	138908.800
525	522	1	0.1640	312963.200
526	517	1	0.1640	312963.200
527	526	1	0.1640	312963.200
528	527	1	0.1640	312963.200
529	528	1	0.1640	312963.200
530	529	1	0.1480	138908.800
531	529	1	0.1480	138908.800
532	529	1	0.1640	312963.200
534	533	1	0.1640	312963.200
535	533	1	0.1640	312963.200
536	533	1	0.1640	312963.200
537	536	1	0.1640	312963.200
538	537	1	0.1640	312963.200
539	537	1	0.1640	312963.200
540	537	1	0.1640	312963.200
541	540	1	0.1640	312963.200
542	541	1	0.1640	312963.200
543	541	1	0.1640	312963.200
544	541	1	0.1640	312963.200
545	544	1	0.1640	312963.200
546	545	1	0.1640	312963.200
547	545	1	0.1640	312963.200
548	547	1	0.1640	312963.200
549	548	1	0.1640	312963.200
550	549	1	0.1640	312963.200
551	550	1	0.1480	138908.800
552	550	1	0.1480	138908.800
553	550	1	0.1640	312963.200
554	545	1	0.1640	312963.200
555	554	1	0.1640	312963.200
556	555	1	0.1640	312963.200
557	556	1	0.1640	312963.200
558	557	1	0.1480	138908.800
559	557	1	0.1480	138908.800
560	557	1	0.1640	312963.200
562	561	1	0.1640	312963.200
563	561	1	0.1640	312963.200
564	561	1	0.1640	312963.200
565	564	1	0.1640	312963.200
566	565	1	0.1640	312963.200
567	565	1	0.1640	312963.200
568	565	1	0.1640	312963.200
569	568	1	0.1640	312963.200
570	569	1	0.1640	312963.200
571	569	1	0.1640	312963.200
572	569	1	0.1640	312963.200
573	572	1	0.1640	312963.200
574	573	1	0.1640	312963.200
575	573	1	0.1640	312963.200
576	575	1	0.1640	312963.200
577	576	1	0.1640	312963.200
578	577	1	0.1640	312963.200
579	578	1	0.1480	138908.800
580	578	1	0.1480	138908.800
581	578	1	0.1640	312963.200
582	573	1	0.1640	312963.200
583	582	1	0.1640	312963.200
584	583	1	0.1640	312963.200
585	584	1	0.1640	312963.200
586	585	1	0.1480	138908.800
587	585	1	0.1480	138908.800
588	585	1	0.1640	312963.200
590	589	1	0.1640	312963.200
591	589	1	0.1640	312963.200
592	589	1	0.1640	312963.200
593	592	1	0.1640	312963.200
594	593	1	0.1640	312963.200
595	593	1	0.1640	312963.200
596	593	1	0.1640	312963.200
597	596	1	0.1640	312963.200
598	597	1	0.1640	312963.200
599	597	1	0.1640	312963.200
600	597	1	0.1640	312963.200
601	600	1	0.1640	312963.200
602	601	1	0.1640	312963.200
603	601	1	0.1640	312963.200
604	603	1	0.1640	312963.200
605	604	1	0.1640	312963.200
606	605	1	0.1640	312963.200
607	606	1	0.1480	138908.800
608	606	1	0.1480	138908.800
609	606	1	0.1640	312963.200
610	601	1	0.1640	312963.200
611	610	1	0.1640	312963.200
612	611	1	0.1640	312963.200
613	612	1	0.1640	312963.200
614	613	1	0.1480	138908.800
615	613	1	0.1480	138908.800
616	613	1	0.1640	312963.200
618	617	1	0.1640	312963.200
619	617	1	0.1640	312963.200
620	617	1	0.1640	312963.200
621	620	1	0.1640	312963.200
622	621	1	0.1640	312963.200
623	621	1	0.1640	312963.200
624	621	1	0.1640	312963.200
625	624	1	0.1640	312963.200
626	625	1	0.1640	312963.200
627	625	1	0.1640	312963.200
628	625	1	0.1640	312963.200
629	628	1	0.1640	312963.200
630	629	1	0.1640	312963.200
631	629	1	0.1640	312963.200
632	631	1	0.1640	312963.200
633	632	1	0.1640	312963.200
634	633	1	0.1640	312963.200
635	634	1	0.1480	138908.800
636	634	1	0.1480	138908.800
637	634	1	0.1640	312963.200
638	629	1	0.1640	312963.200
639	638	1	0.1640	312963.200
640	639	1	0.1640	312963.200
641	640	1	0.1640	312963.200
642	641	1	0.1480	138908.800
643	641	1	0.1480	138908.800
644	641	1	0.1640	312963.200
646	645	1	0.1640	312963.200
647	645	1	0.1640	312963.200
648	645	1	0.1640	312963.200
649	648	1	0.1640	312963.200
650	649	1	0.1640	312963.200
651	649	1	0.1640	312963.200
652	649	1	0.1640	312963.200
653	652	1	0.1640	312963.200
654	653	1	0.1640	312963.200
655	653	1	0.1640	312963.200
656	653	1	0.1640	312963.200
657	656	1	0.1640	312963.200
658	657	1	0.1640	312963.200
659	657	1	0.1640	312963.200
660	659	1	0.1640	312963.200
661	660	1	0.1640	312963.200
662	661	1	0.1640	312963.200
663	662	1	0.1480	138908.800
664	662	1	0.1480	138908.800
665	662	1	0.1640	312963.200
666	657	1	0.1640	312963.200
667	666	1	0.1640	312963.200
668	667	1	0.1640	312963.200
669	668	1	0.1640	312963.200
670	669	1	0.1480	138908.800
671	669	1	0.1480	138908.800
672	669	1	0.1640	312963.200
674	673	1	0.1640	312963.200
675	673	1	0.1640	312963.200
676	673	1	0.1640	312963.200
677	676	1	0.1640	312963.200
678	677	1	0.1640	312963.200
679	677	1	0.1640	312963.200
680	677	1	0.1640	312963.200
681	680	1	0.1640	312963.200
682	681	1	0.1640	312963.200
683	681	1	0.1640	312963.200
684	681	1	0.1640	312963.200
685	684	1	0.1640	312963.200
686	685	1	0.1640	312963.200
687	685	1	0.1640	312963.200
688	687	1	0.1640	312963.200
689	688	1	0.1640	312963.200
690	689	1	0.1640	312963.200
691	690	1	0.1480	138908.800
692	690	1	0.1480	138908.800
693	690	1	0.1640	312963.200
694	685	1	0.1640	312963.200
695	694	1	0.1640	312963.200
696	695	1	0.1640	312963.200
697	696	1	0.1640	312963.200
698	697	1	0.1480	138908.800
699	697	1	0.1480	138908.800
700	697	1	0.1640	312963.200
702	701	1	0.1640	312963.200
703	701	1	0.1640	312963.200
704	701	1	0.1640	312963.200
705	704	1	0.1640	312963.200
706	705	1	0.1640	312963.200
707	705	1	0.1640	312963.200
708	705	1	0.1640	312963.200
709	708	1	0.1640	312963.200
710	709	1	0.1640	312963.200
711	709	1	0.1640	312963.200
712	709	1	0.1640	312963.200
713	712	1	0.1640	312963.200
714	713	1	0.1640	312963.200
715	713	1	0.1640	312963.200
716	715	1	0.1640	312963.200
717	716	1	0.1640	312963.200
718	717	1	0.1640	312963.200
719	718	1	0.1480	138908.800
720	718	1	0.1480	138908.800
721	718	1	0.1640	312963.200
722	713	1	0.1640	312963.200
723	722	1	0.1640	312963.200
724	723	1	0.1640	312963.200
725	724	1	0.1640	312963.200
726	725	1	0.1480	138908.800
727	725	1	0.1480	138908.800
728	725	1	0.1640	312963.200
730	729	1	0.1640	312963.200
731	729	1	0.1640	312963.200
732	729	1	0.1640	312963.200
733	732	1	0.1640	312963.200
734	733	1	0.1640	312963.200
735	733	1	0.1640	312963.200
736	733	1	0.1640	312963.200
737	736	1	0.1640	312963.200
738	737	1	0.1640	312963.200
739	737	1	0.1640	312963.200
740	737	1	0.1640	312963.200
741	740	1	0.1640	312963.200
742	741	1	0.1640	312963.200
743	741	1	0.1640	312963.200
744	743	1	0.1640	312963.200
745	744	1	0.1640	312963.200
746	745	1	0.1640	312963.200
747	746	1	0.1480	138908.800
748	746	1	0.1480	138908.800
749	746	1	0.1640	312963.200
750	741	1	0.1640	312963.200
751	750	1	0.1640	312963.200
752	751	1	0.1640	312963.200
753	752	1	0.1640	312963.200
754	753	1	0.1480	138908.800
755	753	1	0.1480	138908.800
756	753	1	0.1640	312963.200
758	757	1	0.1640	312963.200
759	757	1	0.1640	312963.200
760	757	1	0.1640	312963.200
761	760	1	0.1640	312963.200
762	761	1	0.1640	312963.200
763	761	1	0.1640	312963.200
764	761	1	0.1640	312963.200
765	764	1	0.1640	312963.200
766	765	1	0.1640	312963.200
767	765	1	0.1640	312963.200
768	765	1	0.1640	312963.200
769	768	1	0.1640	312963.200
770	769	1	0.1640	312963.200
771	769	1	0.1640	312963.200
772	771	1	0.1640	312963.200
773	772	1	0.1640	312963.200
774	773	1	0.1640	312963.200
775	774	1	0.1480	138908.800
776	774	1	0.1480	138908.800
777	774	1	0.1640	312963.200
778	769	1	0.1640	312963.200
779	778	1	0.1640	312963.200
780	779	1	0.1640	312963.200
781	780	1	0.1640	312963.200
782	781	1	0.1480	138908.800
783	781	1	0.1480	138908.800
784	781	1	0.1640	312963.200
786	785	1	0.1640	312963.200
787	785	1	0.1640	312963.200
788	785	1	0.1640	312963.200
789	788	1	0.1640	312963.200
790	789	1	0.1640	312963.200
791	789	1	0.1640	312963.200
792	789	1	0.1640	312963.200
793	792	1	0.1640	312963.200
794	793	1	0.1640	312963.200
795	793	1	0.1640	312963.200
796	793	1	0.1640	312963.200
797	796	1	0.1640	312963.200
798	797	1	0.1640	312963.200
799	797	1	0.1640	312963.200
800	799	1	0.1640	312963.200
801	800	1	0.1640	312963.200
802	801	1	0.1640	312963.200
803	802	1	0.1480	138908.800
804	802	1	0.1480	138908.800
805	802	1	0.1640	312963.200
806	797	1	0.1640	312963.200
807	806	1	0.1640	312963.200
808	807	1	0.1640	312963.200
809	808	1	0.1640	312963.200
810	809	1	0.1480	138908.800
811	809	1	0.1480	138908.800
812	809	1	0.1640	312963.200
814	813	1	0.1640	312963.200
815	813	1	0.1640	312963.200
816	813	1	0.1640	312963.200
817	816	1	0.1640	312963.200
818	817	1	0.1640	312963.200
819	817	1	0.1640	312963.200
820	817	1	0.1640	312963.200
821	820	1	0.1640	312963.200
822	821	1	0.1640	312963.200
823	821	1	0.1640	312963.200
824	821	1	0.1640	312963.200
825	824	1	0.1640	312963.200
826	825	1	0.1640	312963.200
827	825	1	0.1640	312963.200
828	827	1	0.1640	312963.200
829	828	1	0.1640	312963.200
830	829	1	0.1640	312963.200
831	830	1	0.1480	138908.800
832	830	1	0.1480	138908.800
833	830	1	0.1640	312963.200
834	825	1	0.1640	312963.200
835	834	1	0.1640	312963.200
836	835	1	0.1640	312963.200
837	836	1	0.1640	312963.200
838	837	1	0.1480	138908.800
839	837	1	0.1480	138908.800
840	837	1	0.1640	312963.200
842	841	1	0.1640	312963.200
843	841	1	0.1640	312963.200
844	841	1	0.1640	312963.200
845	844	1	0.1640	312963.200
846	845	1	0.1640	312963.200
847	845	1	0.1640	312963.200
848	845	1	0.1640	312963.200
849	848	1	0.1640	312963.200
850	849	1	0.1640	312963.200
851	849	1	0.1640	312963.200
852	849	1	0.1640	312963.200
853	852	1	0.1640	312963.200
854	853	1	0.1640	312963.200
855	853	1	0.1640	312963.200
856	855	1	0.1640	312963.200
857	856	1	0.1640	312963.200
858	857	1	0.1640	312963.200
859	858	1	0.1480	138908.800
860	858	1	0.1480	138908.800
861	858	1	0.1640	312963.200
862	853	1	0.1640	312963.200
863	862	1	0.1640	312963.200
864	863	1	0.1640	312963.200
865	864	1	0.1640	312963.200
866	865	1	0.1480	138908.800
867	865	1	0.1480	138908.800
868	865	1	0.1640	312963.200
870	869	1	0.1640	312963.200
871	869	1	0.1640	312963.200
872	869	1	0.1640	312963.200
873	872	1	0.1640	312963.200
874	873	1	0.1640	312963.200
875	873	1	0.1640	312963.200
876	873	1	0.1640	312963.200
877	876	1	0.1640	312963.200
878	877	1	0.1640	312963.200
879	877	1	0.1640	312963.200
880	877	1	0.1640	312963.200
881	880	1	0.1640	312963.200
882	881	1	0.1640	312963.200
883	881	1	0.1640	312963.200
884	883	1	0.1640	312963.200
885	884	1	0.1640	312963.200
886	885	1	0.1640	312963.200
887	886	1	0.1480	138908.800
888	886	1	0.1480	138908.800
889	886	1	0.1640	312963.200
890	881	1	0.1640	312963.200
891	890	1	0.1640	312963.200
892	891	1	0.1640	312963.200
893	892	1	0.1640	312963.200
894	893	1	0.1480	138908.800
895	893	1	0.1480	138908.800
896	893	1	0.1640	312963.200
898	897	1	0.1640	312963.200
899	897	1	0.1640	312963.200
900	897	1	0.1640	312963.200
901	900	1	0.1640	312963.200
902	901	1	0.1640	312963.200
903	901	1	0.1640	312963.200
904	901	1	0.1640	312963.200
905	904	1	0.1640	312963.200
906	905	1	0.1640	312963.200
907	905	1	0.1640	312963.200
908	905	1	0.1640	312963.200
909	908	1	0.1640	312963.200
910	909	1	0.1640	312963.200
911	909	1	0.1640	312963.200
912	911	1	0.1640	312963.200
913	912	1	0.1640	312963.200
914	913	1	0.1640	312963.200
915	914	1	0.1480	138908.800
916	914	1	0.1480	138908.800
917	914	1	0.1640	312963.200
918	909	1	0.1640	312963.200
919	918	1	0.1640	312963.200
920	919	1	0.1640	312963.200
921	920	1	0.1640	312963.200
922	921	1	0.1480	138908.800
923	921	1	0.1480	138908.800
924	921	1	0.1640	312963.200
926	925	1	0.1640	312963.200
927	925	1	0.1640	312963.200
928	925	1	0.1640	312963.200
929	928	1	0.1640	312963.200
930	929	1	0.1640	312963.200
931	929	1	0.1640	312963.200
932	929	1	0.1640	312963.200
933	932	1	0.1640	312963.200
934	933	1	0.1640	312963.200
935	933	1	0.1640	312963.200
936	933	1	0.1640	312963.200
937	936	1	0.1640	312963.200
938	937	1	0.1640	312963.200
939	937	1	0.1640	312963.200
940	939	1	0.1640	312963.200
941	940	1	0.1640	312963.200
942	941	1	0.1640	312963.200
943	942	1	0.1480	138908.800
944	942	1	0.1480	138908.800
945	942	1	0.1640	312963.200
946	937	1	0.1640	312963.200
947	946	1	0.1640	312963.200
948	947	1	0.1640	312963.200
949	948	1	0.1640	312963.200
950	949	1	0.1480	138908.800
951	949	1	0.1480	138908.800
952	949	1	0.1640	312963.200
954	953	1	0.1640	312963.200
955	953	1	0.1640	312963.200
956	953	1	0.1640	312963.200
957	956	1	0.1640	312963.200
958	957	1	0.1640	312963.200
959	957	1	0.1640	312963.200
960	957	1	0.1640	312963.200
961	960	1	0.1640	312963.200
962	961	1	0.1640	312963.200
963	961	1	0.1640	312963.200
964	961	1	0.1640	312963.200
965	964	1	0.1640	312963.200
966	965	1	0.1640	312963.200
967	965	1	0.1640	312963.200
968	967	1	0.1640	312963.200
969	968	1	0.1640	312963.200
970	969	1	0.1640	312963.200
971	970	1	0.1480	138908.800
972	970	1	0.1480	138908.800
973	970	1	0.1640	312963.200
974	965	1	0.1640	312963.200
975	974	1	0.1640	312963.200
976	975	1	0.1640	312963.200
977	976	1	0.1640	312963.200
978	977	1	0.1480	138908.800
979	977	1	0.1480	138908.800
980	977	1	0.1640	312963.200
982	981	1	0.1640	312963.200
983	981	1	0.1640	312963.200
984	981	1	0.1640	312963.200
985	984	1	0.1640	312963.200
986	985	1	0.1640	312963.200
987	985	1	0.1640	312963.200
988	985	1	0.1640	312963.200
989	988	1	0.1640	312963.200
990	989	1	0.1640	312963.200
991	989	1	0.1640	312963.200
992	989	1	0.1640	312963.200
993	992	1	0.1640	312963.200
994	993	1	0.1640	312963.200
995	993	1	0.1640	312963.200
996	995	1	0.1640	312963.200
997	996	1	0.1640	312963.200
998	997	1	0.1640	312963.200
999	998	1	0.1480	138908.800
1000	998	1	0.1480	138908.800
1001	998	1	0.1640	312963.200
1002	993	1	0.1640	312963.200
1003	1002	1	0.1640	312963.200
1004	1003	1	0.1640	312963.200
1005	1004	1	0.1640	312963.200
1006	1005	1	0.1480	138908.800
1007	1005	1	0.1480	138908.800
1008	1005	1	0.1640	312963.200
1010	1009	1	0.1640	312963.200
1011	1009	1	0.1640	312963.200
1012	1009	1	0.1640	312963.200
1013	1012	1	0.1640	312963.200
1014	1013	1	0.1640	312963.200
1015	1013	1	0.1640	312963.200
1016	1013	1	0.1640	312963.200
1017	1016	1	0.1640	312963.200
1018	1017	1	0.1640	312963.200
1019	1017	1	0.1640	312963.200
1020	1017	1	0.1640	312963.200
1021	1020	1	0.1640	312963.200
1022	1021	1	0.1640	312963.200
1023	1021	1	0.1640	312963.200
1024	1023	1	0.1640	312963.200
1025	1024	1	0.1640	312963.200
1026	1025	1	0.1640	312963.200
1027	1026	1	0.1480	138908.800
1028	1026	1	0.1480	138908.800
1029	1026	1	0.1640	312963.200
1030	1021	1	0.1640	312963.200
1031	1030	1	0.1640	312963.200
1032	1031	1	0.1640	312963.200
1033	1032	1	0.1640	312963.200
1034	1033	1	0.1480	138908.800
1035	1033	1	0.1480	138908.800
1036	1033	1	0.1640	312963.200
1038	1037	1	0.1640	312963.200
1039	1037	1	0.1640	312963.200
1040	1037	1	0.1640	312963.200
1041	1040	1	0.1640	312963.200
1042	1041	1	0.1640	312963.200
1043	1041	1	0.1640	312963.200
1044	1041	1	0.1640	312963.200
1045	1044	1	0.1640	312963.200
1046	1045	1	0.1640	312963.200
1047	1045	1	0.1640	312963.200
1048	1045	1	0.1640	312963.200
1049	1048	1	0.1640	312963.200
1050	1049	1	0.1640	312963.200
1051	1049	1	0.1640	312963.200
1052	1051	1	0.1640	312963.200
1053	1052	1	0.1640	312963.200
1054	1053	1	0.1640	312963.200
1055	1054	1	0.1480	138908.800
1056	1054	1	0.1480	138908.800
1057	1054	1	0.1640	312963.200
1058	1049	1	0.1640	312963.200
1059	1058	1	0.1640	312963.200
1060	1059	1	0.1640	312963.200
1061	1060	1	0.1640	312963.200
1062	1061	1	0.1480	138908.800
1063	1061	1	0.1480	138908.800
1064	1061	1	0.1640	312963.200
1066	1065	1	0.1640	312963.200
1067	1065	1	0.1640	312963.200
1068	1065	1	0.1640	312963.200
1069	1068	1	0.1640	312963.200
1070	1069	1	0.1640	312963.200
1071	1069	1	0.1640	312963.200
1072	1069	1	0.1640	312963.200
1073	1072	1	0.1640	312963.200
1074	1073	1	0.1640	312963.200
1075	1073	1	0.1640	312963.200
1076	1073	1	0.1640	312963.200
1077	1076	1	0.1640	312963.200
1078	1077	1	0.1640	312963.200
1079	1077	1	0.1640	312963.200
1080	1079	1	0.1640	312963.200
1081	1080	1	0.1640	312963.200
1082	1081	1	0.1640	312963.200
1083	1082	1	0.1480	138908.800
1084	1082	1	0.1480	138908.800
1085	1082	1	0.1640	312963.200
1086	1077	1	0.1640	312963.200
1087	1086	1	0.1640	312963.200
1088	1087	1	0.1640	312963.200
1089	1088	1	0.1640	312963.200
1090	1089	1	0.1480	138908.800
1091	1089	1	0.1480	138908.800
1092	1089	1	0.1640	312963.200
1094	1093	1	0.1640	312963.200
1095	1093	1	0.1640	312963.200
1096	1093	1	0.1640	312963.200
1097	1096	1	0.1640	312963.200
1098	1097	1	0.1640	312963.200
1099	1097	1	0.1640	312963.200
1100	1097	1	0.1640	312963.200
1101	1100	1	0.1640	312963.200
1102	1101	1	0.1640	312963.200
1103	1101	1	0.1640	312963.200
1104	1101	1	0.1640	312963.200
1105	1104	1	0.1640	312963.200
1106	1105	1	0.1640	312963.200
1107	1105	1	0.1640	312963.200
1108	1107	1	0.1640	312963.200
1109	1108	1	0.1640	312963.200
1110	1109	1	0.1640	312963.200
1111	1110	1	0.1480	138908.800
1112	1110	1	0.1480	138908.800
1113	1110	1	0.1640	312963.200
1114	1105	1	0.1640	312963.200
1115	1114	1	0.1640	312963.200
1116	1115	1	0.1640	312963.200
1117	1116	1	0.1640	312963.200
1118	1117	1	0.1480	138908.800
1119	1117	1	0.1480	138908.800
1120	1117	1	0.1640	312963.200
1122	1121	1	0.1640	312963.200
1123	1121	1	0.1640	312963.200
1124	1121	1	0.1640	312963.200
1125	1124	1	0.1640	312963.200
1126	1125	1	0.1640	312963.200
1127	1125	1	0.1640	312963.200
1128	1125	1	0.1640	312963.200
1129	1128	1	0.1640	312963.200
1130	1129	1	0.1640	312963.200
1131	1129	1	0.1640	312963.200
1132	1129	1	0.1640	312963.200
1133	1132	1	0.1640	312963.200
1134	1133	1	0.1640	312963.200
1135	1133	1	0.1640	312963.200
1136	1135	1	0.1640	312963.200
1137	1136	1	0.1640	312963.200
1138	1137	1	0.1640	312963.200
1139	1138	1	0.1480	138908.800
1140	1138	1	0.1480	138908.800
1141	1138	1	0.1640	312963.200
1142	1133	1	0.1640	312963.200
1143	1142	1	0.1640	312963.200
1144	1143	1	0.1640	312963.200
1145	1144	1	0.1640	312963.200
1146	1145	1	0.1480	138908.800
1147	1145	1	0.1480	138908.800
1148	1145	1	0.1640	312963.200
1150	1149	1	0.1640	312963.200
1151	1149	1	0.1640	312963.200
1152	1149	1	0.1640	312963.200
1153	1152	1	0.1640	312963.200
1154	1153	1	0.1640	312963.200
1155	1153	1	0.1640	312963.200
1156	1153	1	0.1640	312963.200
1157	1156	1	0.1640	312963.200
1158	1157	1	0.1640	312963.200
1159	1157	1	0.1640	312963.200
1160	1157	1	0.1640	312963.200
1161	1160	1	0.1640	312963.200
1162	1161	1	0.1640	312963.200
1163	1161	1	0.1640	312963.200
1164	1163	1	0.1640	312963.200
1165	1164	1	0.1640	312963.200
1166	1165	1	0.1640	312963.200
1167	1166	1	0.1480	138908.800
1168	1166	1	0.1480	138908.800
1169	1166	1	0.1640	312963.200
1170	1161	1	0.1640	312963.200
1171	1170	1	0.1640	312963.200
1172	1171	1	0.1640	312963.200
1173	1172	1	0.1640	312963.200
1174	1173	1	0.1480	138908.800
1175	1173	1	0.1480	138908.800
1176	1173	1	0.1640	312963.200
1178	1177	1	0.1640	312963.200
1179	1177	1	0.1640	312963.200
1180	1177	1	0.1640	312963.200
1181	1180	1	0.1640	312963.200
1182	1181	1	0.1640	312963.200
1183	1181	1	0.1640	312963.200
1184	1181	1	0.1640	312963.200
1185	1184	1	0.1640	312963.200
1186	1185	1	0.1640	312963.200
1187	1185	1	0.1640	312963.200
1188	1185	1	0.1640	312963.200
1189	1188	1	0.1640	312963.200
1190	1189	1	0.1640	312963.200
1191	1189	1	0.1640	312963.200
1192	1191	1	0.1640	312963.200
1193	1192	1	0.1640	312963.200
1194	1193	1	0.1640	312963.200
1195	1194	1	0.1480	138908.800
1196	1194	1	0.1480	138908.800
1197	1194	1	0.1640	312963.200
1198	1189	1	0.1640	312963.200
1199	1198	1	0.1640	312963.200
1200	1199	1	0.1640	312963.200
1201	1200	1	0.1640	312963.200
1202	1201	1	0.1480	138908.800
1203	1201	1	0.1480	138908.800
1204	1201	1	0.1640	312963.200
1206	1205	1	0.1640	312963.200
1207	1205	1	0.1640	312963.200
1208	1205	1	0.1640	312963.200
1209	1208	1	0.1640	312963.200
1210	1209	1	0.1640	312963.200
1211	1209	1	0.1640	312963.200
1212	1209	1	0.1640	312963.200
1213	1212	1	0.1640	312963.200
1214	1213	1	0.1640	312963.200
1215	1213	1	0.1640	312963.200
1216	1213	1	0.1640	312963.200
1217	1216	1	0.1640	312963.200
1218	1217	1	0.1640	312963.200
1219	1217	1	0.1640	312963.200
1220	1219	1	0.1640	312963.200
1221	1220	1	0.1640	312963.200
1222	1221	1	0.1640	312963.200
1223	1222	1	0.1480	138908.800
1224	1222	1	0.1480	138908.800
1225	1222	1	0.1640	312963.200
1226	1217	1	0.1640	312963.200
1227	1226	1	0.1640	312963.200
1228	1227	1	0.1640	312963.200
1229	1228	1	0.1640	312963.200
1230	1229	1	0.1480	138908.800
1231	1229	1	0.1480	138908.800
1232	1229	1	0.1640	312963.200
1234	1233	1	0.1640	312963.200
1235	1233	1	0.1640	312963.200
1236	1233	1	0.1640	312963.200
1237	1236	1	0.1640	312963.200
1238	1237	1	0.1640	312963.200
1239	1237	1	0.1640	312963.200
1240	1237	1	0.1640	312963.200
1241	1240	1	0.1640	312963.200
1242	1241	1	0.1640	312963.200
1243	1241	1	0.1640	312963.200
1244	1241	1	0.1640	312963.200
1245	1244	1	0.1640	312963.200
1246	1245	1	0.1640	312963.200
1247	1245	1	0.1640	312963.200
1248	1247	1	0.1640	312963.200
1249	1248	1	0.1640	312963.200
1250	1249	1	0.1640	312963.200
1251	1250	1	0.1480	138908.800
1252	1250	1	0.1480	138908.800
1253	1250	1	0.1640	312963.200
1254	1245	1	0.1640	312963.200
1255	1254	1	0.1640	312963.200
1256	1255	1	0.1640	312963.200
1257	1256	1	0.1640	312963.200
1258	1257	1	0.1480	138908.800
1259	1257	1	0.1480	138908.800
1260	1257	1	0.1640	312963.200
1262	1261	1	0.1640	312963.200
1263	1261	1	0.1640	312963.200
1264	1261	1	0.1640	312963.200
1265	1264	1	0.1640	312963.200
1266	1265	1	0.1640	312963.200
1267	1265	1	0.1640	312963.200
1268	1265	1	0.1640	312963.200
1269	1268	1	0.1640	312963.200
1270	1269	1	0.1640	312963.200
1271	1269	1	0.1640	312963.200
1272	1269	1	0.1640	312963.200
1273	1272	1	0.1640	312963.200
1274	1273	1	0.1640	312963.200
1275	1273	1	0.1640	312963.200
1276	1275	1	0.1640	312963.200
1277	1276	1	0.1640	312963.200
1278	1277	1	0.1640	312963.200
1279	1278	1	0.1480	138908.800
1280	1278	1	0.1480	138908.800
1281	1278	1	0.1640	312963.200
1282	1273	1	0.1640	312963.200
1283	1282	1	0.1640	312963.200
1284	1283	1	0.1640	312963.200
1285	1284	1	0.1640	312963.200
1286	1285	1	0.1480	138908.800
1287	1285	1	0.1480	138908.800
1288	1285	1	0.1640	312963.200
1290	1289	1	0.1640	312963.200
1291	1289	1	0.1640	312963.200
1292	1289	1	0.1640	312963.200
1293	1292	1	0.1640	312963.200
1294	1293	1	0.1640	312963.200
1295	1293	1	0.1640	312963.200
1296	1293	1	0.1640	312963.200
1297	1296	1	0.1640	312963.200
1298	1297	1	0.1640	312963.200
1299	1297	1	0.1640	312963.200
1300	1297	1	0.1640	312963.200
1301	1300	1	0.1640	312963.200
1302	1301	1	0.1640	312963.200
1303	1301	1	0.1640	312963.200
1304	1303	1	0.1640	312963.200
1305	1304	1	0.1640	312963.200
1306	1305	1	0.1640	312963.200
1307	1306	1	0.1480	138908.800
1308	1306	1	0.1480	138908.800
1309	1306	1	0.1640	312963.200
1310	1301	1	0.1640	312963.200
1311	1310	1	0.1640	312963.200
1312	1311	1	0.1640	312963.200
1313	1312	1	0.1640	312963.200
1314	1313	1	0.1480	138908.800
1315	1313	1	0.1480	138908.800
1316	1313	1	0.1640	312963.200
1318	1317	1	0.1640	312963.200
1319	1317	1	0.1640	312963.200
1320	1317	1	0.1640	312963.200
1321	1320	1	0.1640	312963.200
1322	1321	1	0.1640	312963.200
1323	1321	1	0.1640	312963.200
1324	1321	1	0.1640	312963.200
1325	1324	1	0.1640	312963.200
1326	1325	1	0.1640	312963.200
1327	1325	1	0.1640	312963.200
1328	1325	1	0.1640	312963.200
1329	1328	1	0.1640	312963.200
1330	1329	1	0.1640	312963.200
1331	1329	1	0.1640	312963.200
1332	1331	1	0.1640	312963.200
1333	1332	1	0.1640	312963.200
1334	1333	1	0.1640	312963.200
1335	1334	1	0.1480	138908.800
1336	1334	1	0.1480	138908.800
1337	1334	1	0.1640	312963.200
1338	1329	1	0.1640	312963.200
1339	1338	1	0.1640	312963.200
1340	1339	1	0.1640	312963.200
1341	1340	1	0.1640	312963.200
1342	1341	1	0.1480	138908.800
1343	1341	1	0.1480	138908.800
1344	1341	1	0.1640	312963.200
1346	1345	1	0.1640	312963.200
1347	1345	1	0.1640	312963.200
1348	1345	1	0.1640	312963.200
1349	1348	1	0.1640	312963.200
1350	1349	1	0.1640	312963.200
1351	1349	1	0.1640	312963.200
1352	1349	1	0.1640	312963.200
1353	1352	1	0.1640	312963.200
1354	1353	1	0.1640	312963.200
1355	1353	1	0.1640	312963.200
1356	1353	1	0.1640	312963.200
1357	1356	1	0.1640	312963.200
1358	1357	1	0.1640	312963.200
1359	1357	1	0.1640	312963.200
1360	1359	1	0.1640	312963.200
1361	1360	1	0.1640	312963.200
1362	1361	1	0.1640	312963.200
1363	1362	1	0.1480	138908.800
1364	1362	1	0.1480	138908.800
1365	1362	1	0.1640	312963.200
1366	1357	1	0.1640	312963.200
1367	1366	1	0.1640	312963.200
1368	1367	1	0.1640	312963.200
1369	1368	1	0.1640	312963.200
1370	1369	1	0.1480	138908.800
1371	1369	1	0.1480	138908.800
1372	1369	1	0.1640	312963.200
1374	1373	1	0.1640	312963.200
1375	1373	1	0.1640	312963.200
1376	1373	1	0.1640	312963.200
1377	1376	1	0.1640	312963.200
1378	1377	1	0.1640	312963.200
1379	1377	1	0.1640	312963.200
1380	1377	1	0.1640	312963.200
1381	1380	1	0.1640	312963.200
1382	1381	1	0.1640	312963.200
1383	1381	1	0.1640	312963.200
1384	1381	1	0.1640	312963.200
1385	1384	1	0.1640	312963.200
1386	1385	1	0.1640	312963.200
1387	1385	1	0.1640	312963.200
1388	1387	1	0.1640	312963.200
1389	1388	1	0.1640	312963.200
1390	1389	1	0.1640	312963.200
1391	1390	1	0.1480	138908.800
1392	1390	1	0.1480	138908.800
1393	1390	1	0.1640	312963.200
1394	1385	1	0.1640	312963.200
1395	1394	1	0.1640	312963.200
1396	1395	1	0.1640	312963.200
1397	1396	1	0.1640	312963.200
1398	1397	1	0.1480	138908.800
1399	1397	1	0.1480	138908.800
1400	1397	1	0.1640	312963.200
1402	1401	1	0.1640	312963.200
1403	1401	1	0.1640	312963.200
1404	1401	1	0.1640	312963.200
1405	1404	1	0.1640	312963.200
1406	1405	1	0.1640	312963.200
1407	1405	1	0.1640	312963.200
1408	1405	1	0.1640	312963.200
1409	1408	1	0.1640	312963.200
1410	1409	1	0.1640	312963.200
1411	1409	1	0.1640	312963.200
1412	1409	1	0.1640	312963.200
1413	1412	1	0.1640	312963.200
1414	1413	1	0.1640	312963.200
1415	1413	1	0.1640	312963.200
1416	1415	1	0.1640	312963.200
1417	1416	1	0.1640	312963.200
1418	1417	1	0.1640	312963.200
1419	1418	1	0.1480	138908.800
1420	1418	1	0.1480	138908.800
1421	1418	1	0.1640	312963.200
1422	1413	1	0.1640	312963.200
1423	1422	1	0.1640	312963.200
1424	1423	1	0.1640	312963.200
1425	1424	1	0.1640	312963.200
1426	1425	1	0.1480	138908.800
1427	1425	1	0.1480	138908.800
1428	1425	1	0.1640	312963.200
1430	1429	1	0.1640	312963.200
1431	1429	1	0.1640	312963.200
1432	1429	1	0.1640	312963.200
1433	1432	1	0.1640	312963.200
1434	1433	1	0.1640	312963.200
1435	1433	1	0.1640	312963.200
1436	1433	1	0.1640	312963.200
1437	1436	1	0.1640	312963.200
1438	1437	1	0.1640	312963.200
1439	1437	1	0.1640	312963.200
1440	1437	1	0.1640	312963.200
1441	1440	1	0.1640	312963.200
1442	1441	1	0.1640	312963.200
1443	1441	1	0.1640	312963.200
1444	1443	1	0.1640	312963.200
1445	1444	1	0.1640	312963.200
1446	1445	1	0.1640	312963.200
1447	1446	1	0.1480	138908.800
1448	1446	1	0.1480	138908.800
1449	1446	1	0.1640	312963.200
1450	1441	1	0.1640	312963.200
1451	1450	1	0.1640	312963.200
1452	1451	1	0.1640	312963.200
1453	1452	1	0.1640	312963.200
1454	1453	1	0.1480	138908.800
1455	1453	1	0.1480	138908.800
1456	1453	1	0.1640	312963.200
1458	1457	1	0.1640	312963.200
1459	1457	1	0.1640	312963.200
1460	1457	1	0.1640	312963.200
1461	1460	1	0.1640	312963.200
1462	1461	1	0.1640	312963.200
1463	1461	1	0.1640	312963.200
1464	1461	1	0.1640	312963.200
1465	1464	1	0.1640	312963.200
1466	1465	1	0.1640	312963.200
1467	1465	1	0.1640	312963.200
1468	1465	1	0.1640	312963.200
1469	1468	1	0.1640	312963.200
1470	1469	1	0.1640	312963.200
1471	1469	1	0.1640	312963.200
1472	1471	1	0.1640	312963.200
1473	1472	1	0.1640	312963.200
1474	1473	1	0.1640	312963.200
1475	1474	1	0.1480	138908.800
1476	1474	1	0.1480	138908.800
1477	1474	1	0.1640	312963.200
1478	1469	1	0.1640	312963.200
1479	1478	1	0.1640	312963.200
1480	1479	1	0.1640	312963.200
1481	1480	1	0.1640	312963.200
1482	1481	1	0.1480	138908.800
1483	1481	1	0.1480	138908.800
1484	1481	1	0.1640	312963.200
1486	1485	1	0.1640	312963.200
1487	1485	1	0.1640	312963.200
1488	1485	1	0.1640	312963.200
1489	1488	1	0.1640	312963.200
1490	1489	1	0.1640	312963.200
1491	1489	1	0.1640	312963.200
1492	1489	1	0.1640	312963.200
1493	1492	1	0.1640	312963.200
1494	1493	1	0.1640	312963.200
1495	1493	1	0.1640	312963.200
1496	1493	1	0.1640	312963.200
1497	1496	1	0.1640	312963.200
1498	1497	1	0.1640	312963.200
1499	1497	1	0.1640	312963.200
1500	1499	1	0.1640	312963.200
1501	1500	1	0.1640	312963.200
1502	1501	1	0.1640	312963.200
1503	1502	1	0.1480	138908.800
1504	1502	1	0.1480	138908.800
1505	1502	1	0.1640	312963.200
1506	1497	1	0.1640	312963.200
1507	1506	1	0.1640	312963.200
1508	1507	1	0.1640	312963.200
1509	1508	1	0.1640	312963.200
1510	1509	1	0.1480	138908.800
1511	1509	1	0.1480	138908.800
1512	1509	1	0.1640	312963.200
1514	1513	1	0.1640	312963.200
1515	1513	1	0.1640	312963.200
1516	1513	1	0.1640	312963.200
1517	1516	1	0.1640	312963.200
1518	1517	1	0.1640	312963.200
1519	1517	1	0.1640	312963.200
1520	1517	1	0.1640	312963.200
1521	1520	1	0.1640	312963.200
1522	1521	1	0.1640	312963.200
1523	1521	1	0.1640	312963.200
1524	1521	1	0.1640	312963.200
1525	1524	1	0.1640	312963.200
1526	1525	1	0.1640	312963.200
1527	1525	1	0.1640	312963.200
1528	1527	1	0.1640	312963.200
1529	1528	1	0.1640	312963.200
1530	1529	1	0.1640	312963.200
1531	1530	1	0.1480	138908.800
1532	1530	1	0.1480	138908.800
1533	1530	1	0.1640	312963.200
1534	1525	1	0.1640	312963.200
1535	1534	1	0.1640	312963.200
1536	1535	1	0.1640	312963.200
1537	1536	1	0.1640	312963.200
1538	1537	1	0.1480	138908.800
1539	1537	1	0.1480	138908.800
1540	1537	1	0.1640	312963.200
1542	1541	1	0.1640	312963.200
1543	1541	1	0.1640	312963.200
1544	1541	1	0.1640	312963.200
1545	1544	1	0.1640	312963.200
1546	1545	1	0.1640	312963.200
1547	1545	1	0.1640	312963.200
1548	1545	1	0.1640	312963.200
1549	1548	1	0.1640	312963.200
1550	1549	1	0.1640	312963.200
1551	1549	1	0.1640	312963.200
1552	1549	1	0.1640	312963.200
1553	1552	1	0.1640	312963.200
1554	1553	1	0.1640	312963.200
1555	1553	1	0.1640	312963.200
1556	1555	1	0.1640	312963.200
1557	1556	1	0.1640	312963.200
1558	1557	1	0.1640	312963.200
1559	1558	1	0.1480	138908.800
1560	1558	1	0.1480	138908.800
1561	1558	1	0.1640	312963.200
1562	1553	1	0.1640	312963.200
1563	1562	1	0.1640	312963.200
1564	1563	1	0.1640	312963.200
1565	1564	1	0.1640	312963.200
1566	1565	1	0.1480	138908.800
1567	1565	1	0.1480	138908.800
1568	1565	1	0.1640	312963.200
1570	1569	1	0.1640	312963.200
1571	1569	1	0.1640	312963.200
1572	1569	1	0.1640	312963.200
1573	1572	1	0.1640	312963.200
1574	1573	1	0.1640	312963.200
1575	1573	1	0.1640	312963.200
1576	1573	1	0.1640	312963.200
1577	1576	1	0.1640	312963.200
1578	1577	1	0.1640	312963.200
1579	1577	1	0.1640	312963.200
1580	1577	1	0.1640	312963.200
1581	1580	1	0.1640	312963.200
1582	1581	1	0.1640	312963.200
1583	1581	1	0.1640	312963.200
1584	1583	1	0.1640	312963.200
1585	1584	1	0.1640	312963.200
1586	1585	1	0.1640	312963.200
1587	1586	1	0.1480	138908.800
1588	1586	1	0.1480	138908.800
1589	1586	1	0.1640	312963.200
1590	1581	1	0.1640	312963.200
1591	1590	1	0.1640	312963.200
1592	1591	1	0.1640	312963.200
1593	1592	1	0.1640	312963.200
1594	1593	1	0.1480	138908.800
1595	1593	1	0.1480	138908.800
1596	1593	1	0.1640	312963.200
1598	1597	1	0.1640	312963.200
1599	1597	1	0.1640	312963.200
1600	1597	1	0.1640	312963.200
1601	1600	1	0.1640	312963.200
1602	1601	1	0.1640	312963.200
1603	1601	1	0.1640	312963.200
1604	1601	1	0.1640	312963.200
1605	1604	1	0.1640	312963.200
1606	1605	1	0.1640	312963.200
1607	1605	1	0.1640	312963.200
1608	1605	1	0.1640	312963.200
1609	1608	1	0.1640	312963.200
1610	1609	1	0.1640	312963.200
1611	1609	1	0.1640	312963.200
1612	1611	1	0.1640	312963.200
1613	1612	1	0.1640	312963.200
1614	1613	1	0.1640	312963.200
1615	1614	1	0.1480	138908.800
1616	1614	1	0.1480	138908.800
1617	1614	1	0.1640	312963.200
1618	1609	1	0.1640	312963.200
1619	1618	1	0.1640	312963.200
1620	1619	1	0.1640	312963.200
1621	1620	1	0.1640	312963.200
1622	1621	1	0.1480	138908.800
1623	1621	1	0.1480	138908.800
1624	1621	1	0.1640	312963.200
1626	1625	1	0.1640	312963.200
1627	1625	1	0.1640	312963.200
1628	1625	1	0.1640	312963.200
1629	1628	1	0.1640	312963.200
1630	1629	1	0.1640	312963.200
1631	1629	1	0.1640	312963.200
1632	1629	1	0.1640	312963.200
1633	1632	1	0.1640	312963.200
1634	1633	1	0.1640	312963.200
1635	1633	1	0.1640	312963.200
1636	1633	1	0.1640	312963.200
1637	1636	1	0.1640	312963.200
1638	1637	1	0.1640	312963.200
1639	1637	1	0.1640	312963.200
1640	1639	1	0.1640	312963.200
1641	1640	1	0.1640	312963.200
1642	1641	1	0.1640	312963.200
1643	1642	1	0.1480	138908.800
1644	1642	1	0.1480	138908.800
1645	1642	1	0.1640	312963.200
1646	1637	1	0.1640	312963.200
1647	1646	1	0.1640	312963.200
1648	1647	1	0.1640	312963.200
1649	1648	1	0.1640	312963.200
1650	1649	1	0.1480	138908.800
1651	1649	1	0.1480	138908.800
1652	1649	1	0.1640	312963.200
1654	1653	1	0.1640	312963.200
1655	1653	1	0.1640	312963.200
1656	1653	1	0.1640	312963.200
1657	1656	1	0.1640	312963.200
1658	1657	1	0.1640	312963.200
1659	1657	1	0.1640	312963.200
1660	1657	1	0.1640	312963.200
1661	1660	1	0.1640	312963.200
1662	1661	1	0.1640	312963.200
1663	1661	1	0.1640	312963.200
1664	1661	1	0.1640	312963.200
1665	1664	1	0.1640	312963.200
1666	1665	1	0.1640	312963.200
1667	1665	1	0.1640	312963.200
1668	1667	1	0.1640	312963.200
1669	1668	1	0.1640	312963.200
1670	1669	1	0.1640	312963.200
1671	1670	1	0.1480	138908.800
1672	1670	1	0.1480	138908.800
1673	1670	1	0.1640	312963.200
1674	1665	1	0.1640	312963.200
1675	1674	1	0.1640	312963.200
1676	1675	1	0.1640	312963.200
1677	1676	1	0.1640	312963.200
1678	1677	1	0.1480	138908.800
1679	1677	1	0.1480	138908.800
1680	1677	1	0.1640	312963.200
1682	1681	1	0.1640	312963.200
1683	1681	1	0.1640	312963.200
1684	1681	1	0.1640	312963.200
1685	1684	1	0.1640	312963.200
1686	1685	1	0.1640	312963.200
1687	1685	1	0.1640	312963.200
1688	1685	1	0.1640	312963.200
1689	1688	1	0.1640	312963.200
1690	1689	1	0.1640	312963.200
1691	1689	1	0.1640	312963.200
1692	1689	1	0.1640	312963.200
1693	1692	1	0.1640	312963.200
1694	1693	1	0.1640	312963.200
1695	1693	1	0.1640	312963.200
1696	1695	1	0.1640	312963.200
1697	1696	1	0.1640	312963.200
1698	1697	1	0.1640	312963.200
1699	1698	1	0.1480	138908.800
1700	1698	1	0.1480	138908.800
1701	1698	1	0.1640	312963.200
1702	1693	1	0.1640	312963.200
1703	1702	1	0.1640	312963.200
1704	1703	1	0.1640	312963.200
1705	1704	1	0.1640	312963.200
1706	1705	1	0.1480	138908.800
1707	1705	1	0.1480	138908.800
1708	1705	1	0.1640	312963.200
1710	1709	1	0.1640	312963.200
1711	1709	1	0.1640	312963.200
1712	1709	1	0.1640	312963.200
1713	1712	1	0.1640	312963.200
1714	1713	1	0.1640	312963.200
1715	1713	1	0.1640	312963.200
1716	1713	1	0.1640	312963.200
1717	1716	1	0.1640	312963.200
1718	1717	1	0.1640	312963.200
1719	1717	1	0.1640	312963.200
1720	1717	1	0.1640	312963.200
1721	1720	1	0.1640	312963.200
1722	1721	1	0.1640	312963.200
1723	1721	1	0.1640	312963.200
1724	1723	1	0.1640	312963.200
1725	1724	1	0.1640	312963.200
1726	1725	1	0.1640	312963.200
1727	1726	1	0.1480	138908.800
1728	1726	1	0.1480	138908.800
1729	1726	1	0.1640	312963.200
1730	1721	1	0.1640	312963.200
1731	1730	1	0.1640	312963.200
1732	1731	1	0.1640	312963.200
1733	1732	1	0.1640	312963.200
1734	1733	1	0.1480	138908.800
1735	1733	1	0.1480	138908.800
1736	1733	1	0.1640	312963.200
1738	1737	1	0.1640	312963.200
1739	1737	1	0.1640	312963.200
1740	1737	1	0.1640	312963.200
1741	1740	1	0.1640	312963.200
1742	1741	1	0.1640	312963.200
1743	1741	1	0.1640	312963.200
1744	1741	1	0.1640	312963.200
1745	1744	1	0.1640	312963.200
1746	1745	1	0.1640	312963.200
1747	1745	1	0.1640	312963.200
1748	1745	1	0.1640	312963.200
1749	1748	1	0.1640	312963.200
1750	1749	1	0.1640	312963.200
1751	1749	1	0.1640	312963.200
1752	1751	1	0.1640	312963.200
1753	1752	1	0.1640	312963.200
1754	1753	1	0.1640	312963.200
1755	1754	1	0.1480	138908.800
1756	1754	1	0.1480	138908.800
1757	1754	1	0.1640	312963.200
1758	1749	1	0.1640	312963.200
1759	1758	1	0.1640	312963.200
1760	1759	1	0.1640	312963.200
1761	1760	1	0.1640	312963.200
1762	1761	1	0.1480	138908.800
1763	1761	1	0.1480	138908.800
1764	1761	1	0.1640	312963.200
1766	1765	1	0.1640	312963.200
1767	1765	1	0.1640	312963.200
1768	1765	1	0.1640	312963.200
1769	1768	1	0.1640	312963.200
1770	1769	1	0.1640	312963.200
1771	1769	1	0.1640	312963.200
1772	1769	1	0.1640	312963.200
1773	1772	1	0.1640	312963.200
1774	1773	1	0.1640	312963.200
1775	1773	1	0.1640	312963.200
1776	1773	1	0.1640	312963.200
1777	1776	1	0.1640	312963.200
1778	1777	1	0.1640	312963.200
1779	1777	1	0.1640	312963.200
1780	1779	1	0.1640	312963.200
1781	1780	1	0.1640	312963.200
1782	1781	1	0.1640	312963.200
1783	1782	1	0.1480	138908.800
1784	1782	1	0.1480	138908.800
1785	1782	1	0.1640	312963.200
1786	1777	1	0.1640	312963.200
1787	1786	1	0.1640	312963.200
1788	1787	1	0.1640	312963.200
1789	1788	1	0.1640	312963.200
1790	1789	1	0.1480	138908.800
1791	1789	1	0.1480	138908.800
1792	1789	1	0.1640	312963.200
23	35	1	0.164	312963.2
23	49	1	0.164	312963.2
51	63	1	0.164	312963.2
51	77	1	0.164	312963.2
79	91	1	0.164	312963.2
79	105	1	0.164	312963.2
107	119	1	0.164	312963.2
107	133	1	0.164	312963.2
135	147	1	0.164	312963.2
135	161	1	0.164	312963.2
163	175	1	0.164	312963.2
163	189	1	0.164	312963.2
191	203	1	0.164	312963.2
191	217	1	0.164	312963.2
247	259	1	0.164	312963.2
247	273	1	0.164	312963.2
275	287	1	0.164	312963.2
275	301	1	0.164	312963.2
303	315	1	0.164	312963.2
303	329	1	0.164	312963.2
331	343	1	0.164	312963.2
331	357	1	0.164	312963.2
359	371	1	0.164	312963.2
359	385	1	0.164	312963.2
387	399	1	0.164	312963.2
387	413	1	0.164	312963.2
415	427	1	0.164	312963.2
415	441	1	0.164	312963.2
471	483	1	0.164	312963.2
471	497	1	0.164	312963.2
499	511	1	0.164	312963.2
499	525	1	0.164	312963.2
527	539	1	0.164	312963.2
527	553	1	0.164	312963.2
555	567	1	0.164	312963.2
555	581	1	0.164	312963.2
583	595	1	0.164	312963.2
583	609	1	0.164	312963.2
611	623	1	0.164	312963.2
611	637	1	0.164	312963.2
639	651	1	0.164	312963.2
639	665	1	0.164	312963.2
695	707	1	0.164	312963.2
695	721	1	0.164	312963.2
723	735	1	0.164	312963.2
723	749	1	0.164	312963.2
751	763	1	0.164	312963.2
751	777	1	0.164	312963.2
779	791	1	0.164	312963.2
779	805	1	0.164	312963.2
807	819	1	0.164	312963.2
807	833	1	0.164	312963.2
835	847	1	0.164	312963.2
835	861	1	0.164	312963.2
863	875	1	0.164	312963.2
863	889	1	0.164	312963.2
919	931	1	0.164	312963.2
919	945	1	0.164	312963.2
947	959	1	0.164	312963.2
947	973	1	0.164	312963.2
975	987	1	0.164	312963.2
975	1001	1	0.164	312963.2
1003	1015	1	0.164	312963.2
1003	1029	1	0.164	312963.2
1031	1043	1	0.164	312963.2
1031	1057	1	0.164	312963.2
1059	1071	1	0.164	312963.2
1059	1085	1	0.164	312963.2
1087	1099	1	0.164	312963.2
1087	1113	1	0.164	312963.2
1143	1155	1	0.164	312963.2
1143	1169	1	0.164	312963.2
1171	1183	1	0.164	312963.2
1171	1197	1	0.164	312963.2
1199	1211	1	0.164	312963.2
1199	1225	1	0.164	312963.2
1227	1239	1	0.164	312963.2
1227	1253	1	0.164	312963.2
1255	1267	1	0.164	312963.2
1255	1281	1	0.164	312963.2
1283	1295	1	0.164	312963.2
1283	1309	1	0.164	312963.2
1311	1323	1	0.164	312963.2
1311	1337	1	0.164	312963.2
1367	1379	1	0.164	312963.2
1367	1393	1	0.164	312963.2
1395	1407	1	0.164	312963.2
1395	1421	1	0.164	312963.2
1423	1435	1	0.164	312963.2
1423	1449	1	0.164	312963.2
1451	1463	1	0.164	312963.2
1451	1477	1	0.164	312963.2
1479	1491	1	0.164	312963.2
1479	1505	1	0.164	312963.2
1507	1519	1	0.164	312963.2
1507	1533	1	0.164	312963.2
1535	1547	1	0.164	312963.2
1535	1561	1	0.164	312963.2
1591	1603	1	0.164	312963.2
1591	1617	1	0.164	312963.2
1619	1631	1	0.164	312963.2
1619	1645	1	0.164	312963.2
1647	1659	1	0.164	312963.2
1647	1673	1	0.164	312963.2
1675	1687	1	0.164	312963.2
1675	1701	1	0.164	312963.2
1703	1715	1	0.164	312963.2
1703	1729	1	0.164	312963.2
1731	1743	1	0.164	312963.2
1731	1757	1	0.164	312963.2
1759	1771	1	0.164	312963.2
1759	1785	1	0.164	312963.2
219	7	1	0.164	312963.2
219	21	1	0.164	312963.2
443	231	1	0.164	312963.2
443	245	1	0.164	312963.2
667	455	1	0.164	312963.2
667	469	1	0.164	312963.2
891	679	1	0.164	312963.2
891	693	1	0.164	312963.2
1115	903	1	0.164	312963.2
1115	917	1	0.164	312963.2
1339	1127	1	0.164	312963.2
1339	1141	1	0.164	312963.2
1563	1351	1	0.164	312963.2
1563	1365	1	0.164	312963.2
1787	1575	1	0.164	312963.2
1787	1589	1	0.164	312963.2
16	230	1	0.164	312963.2
16	252	1	0.164	312963.2
44	258	1	0.164	312963.2
44	280	1	0.164	312963.2
72	286	1	0.164	312963.2
72	308	1	0.164	312963.2
100	314	1	0.164	312963.2
100	336	1	0.164	312963.2
128	342	1	0.164	312963.2
128	364	1	0.164	312963.2
156	370	1	0.164	312963.2
156	392	1	0.164	312963.2
184	398	1	0.164	312963.2
184	420	1	0.164	312963.2
212	426	1	0.164	312963.2
212	448	1	0.164	312963.2
240	454	1	0.164	312963.2
240	476	1	0.164	312963.2
268	482	1	0.164	312963.2
268	504	1	0.164	312963.2
296	510	1	0.164	312963.2
296	532	1	0.164	312963.2
324	538	1	0.164	312963.2
324	560	1	0.164	312963.2
352	566	1	0.164	312963.2
352	588	1	0.164	312963.2
380	594	1	0.164	312963.2
380	616	1	0.164	312963.2
408	622	1	0.164	312963.2
408	644	1	0.164	312963.2
436	650	1	0.164	312963.2
436	672	1	0.164	312963.2
464	678	1	0.164	312963.2
464	700	1	0.164	312963.2
492	706	1	0.164	312963.2
492	728	1	0.164	312963.2
520	734	1	0.164	312963.2
520	756	1	0.164	312963.2
548	762	1	0.164	312963.2
548	784	1	0.164	312963.2
576	790	1	0.164	312963.2
576	812	1	0.164	312963.2
604	818	1	0.164	312963.2
604	840	1	0.164	312963.2
632	846	1	0.164	312963.2
632	868	1	0.164	312963.2
660	874	1	0.164	312963.2
660	896	1	0.164	312963.2
688	902	1	0.164	312963.2
688	924	1	0.164	312963.2
716	930	1	0.164	312963.2
716	952	1	0.164	312963.2
744	958	1	0.164	312963.2
744	980	1	0.164	312963.2
772	986	1	0.164	312963.2
772	1008	1	0.164	312963.2
800	1014	1	0.164	312963.2
800	1036	1	0.164	312963.2
828	1042	1	0.164	312963.2
828	1064	1	0.164	312963.2
856	1070	1	0.164	312963.2
856	1092	1	0.164	312963.2
884	1098	1	0.164	312963.2
884	1120	1	0.164	312963.2
912	1126	1	0.164	312963.2
912	1148	1	0.164	312963.2
940	1154	1	0.164	312963.2
940	1176	1	0.164	312963.2
968	1182	1	0.164	312963.2
968	1204	1	0.164	312963.2
996	1210	1	0.164	312963.2
996	1232	1	0.164	312963.2
1024	1238	1	0.164	312963.2
1024	1260	1	0.164	312963.2
1052	1266	1	0.164	312963.2
1052	1288	1	0.164	312963.2
1080	1294	1	0.164	312963.2
1080	1316	1	0.164	312963.2
1108	1322	1	0.164	312963.2
1108	1344	1	0.164	312963.2
1136	1350	1	0.164	312963.2
1136	1372	1	0.164	312963.2
1164	1378	1	0.164	312963.2
1164	1400	1	0.164	312963.2
1192	1406	1	0.164	312963.2
1192	1428	1	0.164	312963.2
1220	1434	1	0.164	312963.2
1220	1456	1	0.164	312963.2
1248	1462	1	0.164	312963.2
1248	1484	1	0.164	312963.2
1276	1490	1	0.164	312963.2
1276	1512	1	0.164	312963.2
1304	1518	1	0.164	312963.2
1304	1540	1	0.164	312963.2
1332	1546	1	0.164	312963.2
1332	1568	1	0.164	312963.2
1360	1574	1	0.164	312963.2
1360	1596	1	0.164	312963.2
1388	1602	1	0.164	312963.2
1388	1624	1	0.164	312963.2
1416	1630	1	0.164	312963.2
1416	1652	1	0.164	312963.2
1444	1658	1	0.164	312963.2
1444	1680	1	0.164	312963.2
1472	1686	1	0.164	312963.2
1472	1708	1	0.164	312963.2
1500	1714	1	0.164	312963.2
1500	1736	1	0.164	312963.2
1528	1742	1	0.164	312963.2
1528	1764	1	0.164	312963.2
1556	1770	1	0.164	312963.2
1556	1792	1	0.164	312963.2
1584	6	1	0.164	312963.2
1584	28	1	0.164	312963.2
1612	34	1	0.164	312963.2
1612	56	1	0.164	312963.2
1640	62	1	0.164	312963.2
1640	84	1	0.164	312963.2
1668	90	1	0.164	312963.2
1668	112	1	0.164	312963.2
1696	118	1	0.164	312963.2
1696	140	1	0.164	312963.2
1724	146	1	0.164	312963.2
1724	168	1	0.164	312963.2
1752	174	1	0.164	312963.2
1752	196	1	0.164	312963.2
1780	202	1	0.164	312963.2
1780	224	1	0.164	312963.2
1	1778	1	0.164	312963.2
225	210	1	0.164	312963.2
449	434	1	0.164	312963.2
673	658	1	0.164	312963.2
897	882	1	0.164	312963.2
1121	1106	1	0.164	312963.2
1345	1330	1	0.164	312963.2
1569	1554	1	0.164	312963.2
29	1582	1	0.164	312963.2
57	1610	1	0.164	312963.2
85	1638	1	0.164	312963.2
113	1666	1	0.164	312963.2
141	1694	1	0.164	312963.2
169	1722	1	0.164	312963.2
197	1750	1	0.164	312963.2
253	14	1	0.164	312963.2
281	42	1	0.164	312963.2
309	70	1	0.164	312963.2
337	98	1	0.164	312963.2
365	126	1	0.164	312963.2
393	154	1	0.164	312963.2
421	182	1	0.164	312963.2
477	238	1	0.164	312963.2
505	266	1	0.164	312963.2
533	294	1	0.164	312963.2
561	322	1	0.164	312963.2
589	350	1	0.164	312963.2
617	378	1	0.164	312963.2
645	406	1	0.164	312963.2
701	462	1	0.164	312963.2
729	490	1	0.164	312963.2
757	518	1	0.164	312963.2
785	546	1	0.164	312963.2
813	574	1	0.164	312963.2
841	602	1	0.164	312963.2
869	630	1	0.164	312963.2
925	686	1	0.164	312963.2
953	714	1	0.164	312963.2
981	742	1	0.164	312963.2
1009	770	1	0.164	312963.2
1037	798	1	0.164	312963.2
1065	826	1	0.164	312963.2
1093	854	1	0.164	312963.2
1149	910	1	0.164	312963.2
1177	938	1	0.164	312963.2
1205	966	1	0.164	312963.2
1233	994	1	0.164	312963.2
1261	1022	1	0.164	312963.2
1289	1050	1	0.164	312963.2
1317	1078	1	0.164	312963.2
1373	1134	1	0.164	312963.2
1401	1162	1	0.164	312963.2
1429	1190	1	0.164	312963.2
1457	1218	1	0.164	312963.2
1485	1246	1	0.164	312963.2
1513	1274	1	0.164	312963.2
1541	1302	1	0.164	312963.2
1597	1358	1	0.164	312963.2
1625	1386	1	0.164	312963.2
1653	1414	1	0.164	312963.2
1681	1442	1	0.164	312963.2
1709	1470	1	0.164	312963.2
1737	1498	1	0.164	312963.2
1765	1526	1	0.164	312963.2
3	1793	1	0.164	312963.2
11	1794	1	0.164	312963.2
10	1795	1	0.164	312963.2
31	1796	1	0.164	312963.2
39	1797	1	0.164	312963.2
38	1798	1	0.164	312963.2
59	1799	1	0.164	312963.2
67	1800	1	0.164	312963.2
66	1801	1	0.164	312963.2
87	1802	1	0.164	312963.2
95	1803	1	0.164	312963.2
94	1804	1	0.164	312963.2
115	1805	1	0.164	312963.2
123	1806	1	0.164	312963.2
122	1807	1	0.164	312963.2
143	1808	1	0.164	312963.2
151	1809	1	0.164	312963.2
150	1810	1	0.164	312963.2
171	1811	1	0.164	312963.2
179	1812	1	0.164	312963.2
178	1813	1	0.164	312963.2
199	1814	1	0.164	312963.2
207	1815	1	0.164	312963.2
206	1816	1	0.164	312963.2
227	1817	1	0.164	312963.2
235	1818	1	0.164	312963.2
234	1819	1	0.164	312963.2
255	1820	1	0.164	312963.2
263	1821	1	0.164	312963.2
262	1822	1	0.164	312963.2
283	1823	1	0.164	312963.2
291	1824	1	0.164	312963.2
290	1825	1	0.164	312963.2
311	1826	1	0.164	312963.2
319	1827	1	0.164	312963.2
318	1828	1	0.164	312963.2
339	1829	1	0.164	312963.2
347	1830	1	0.164	312963.2
346	1831	1	0.164	312963.2
367	1832	1	0.164	312963.2
375	1833	1	0.164	312963.2
374	1834	1	0.164	312963.2
395	1835	1	0.164	312963.2
403	1836	1	0.164	312963.2
402	1837	1	0.164	312963.2
423	1838	1	0.164	312963.2
431	1839	1	0.164	312963.2
430	1840	1	0.164	312963.2
451	1841	1	0.164	312963.2
459	1842	1	0.164	312963.2
458	1843	1	0.164	312963.2
479	1844	1	0.164	312963.2
487	1845	1	0.164	312963.2
486	1846	1	0.164	312963.2
507	1847	1	0.164	312963.2
515	1848	1	0.164	312963.2
514	1849	1	0.164	312963.2
535	1850	1	0.164	312963.2
543	1851	1	0.164	312963.2
542	1852	1	0.164	312963.2
563	1853	1	0.164	312963.2
571	1854	1	0.164	312963.2
570	1855	1	0.164	312963.2
591	1856	1	0.164	312963.2
599	1857	1	0.164	312963.2
598	1858	1	0.164	312963.2
619	1859	1	0.164	312963.2
627	1860	1	0.164	312963.2
626	1861	1	0.164	312963.2
647	1862	1	0.164	312963.2
655	1863	1	0.164	312963.2
654	1864	1	0.164	312963.2
675	1865	1	0.164	312963.2
683	1866	1	0.164	312963.2
682	1867	1	0.164	312963.2
703	1868	1	0.164	312963.2
711	1869	1	0.164	312963.2
710	1870	1	0.164	312963.2
731	1871	1	0.164	312963.2
739	1872	1	0.164	312963.2
738	1873	1	0.164	312963.2
759	1874	1	0.164	312963.2
767	1875	1	0.164	312963.2
766	1876	1	0.164	312963.2
787	1877	1	0.164	312963.2
795	1878	1	0.164	312963.2
794	1879	1	0.164	312963.2
815	1880	1	0.164	312963.2
823	1881	1	0.164	312963.2
822	1882	1	0.164	312963.2
843	1883	1	0.164	312963.2
851	1884	1	0.164	312963.2
850	1885	1	0.164	312963.2
871	1886	1	0.164	312963.2
879	1887	1	0.164	312963.2
878	1888	1	0.164	312963.2
899	1889	1	0.164	312963.2
907	1890	1	0.164	312963.2
906	1891	1	0.164	312963.2
927	1892	1	0.164	312963.2
935	1893	1	0.164	312963.2
934	1894	1	0.164	312963.2
955	1895	1	0.164	312963.2
963	1896	1	0.164	312963.2
962	1897	1	0.164	312963.2
983	1898	1	0.164	312963.2
991	1899	1	0.164	312963.2
990	1900	1	0.164	312963.2
1011	1901	1	0.164	312963.2
1019	1902	1	0.164	312963.2
1018	1903	1	0.164	312963.2
1039	1904	1	0.164	312963.2
1047	1905	1	0.164	312963.2
1046	1906	1	0.164	312963.2
1067	1907	1	0.164	312963.2
1075	1908	1	0.164	312963.2
1074	1909	1	0.164	312963.2
1095	1910	1	0.164	312963.2
1103	1911	1	0.164	312963.2
1102	1912	1	0.164	312963.2
1123	1913	1	0.164	312963.2
1131	1914	1	0.164	312963.2
1130	1915	1	0.164	312963.2
1151	1916	1	0.164	312963.2
1159	1917	1	0.164	312963.2
1158	1918	1	0.164	312963.2
1179	1919	1	0.164	312963.2
1187	1920	1	0.164	312963.2
1186	1921	1	0.164	312963.2
1207	1922	1	0.164	312963.2
1215	1923	1	0.164	312963.2
1214	1924	1	0.164	312963.2
1235	1925	1	0.164	312963.2
1243	1926	1	0.164	312963.2
1242	1927	1	0.164	312963.2
1263	1928	1	0.164	312963.2
1271	1929	1	0.164	312963.2
1270	1930	1	0.164	312963.2
1291	1931	1	0.164	312963.2
1299	1932	1	0.164	312963.2
1298	1933	1	0.164	312963.2
1319	1934	1	0.164	312963.2
1327	1935	1	0.164	312963.2
1326	1936	1	0.164	312963.2
1347	1937	1	0.164	312963.2
1355	1938	1	0.164	312963.2
1354	1939	1	0.164	312963.2
1375	1940	1	0.164	312963.2
1383	1941	1	0.164	312963.2
1382	1942	1	0.164	312963.2
1403	1943	1	0.164	312963.2
1411	1944	1	0.164	312963.2
1410	1945	1	0.164	312963.2
1431	1946	1	0.164	312963.2
1439	1947	1	0.164	312963.2
1438	1948	1	0.164	312963.2
1459	1949	1	0.164	312963.2
1467	1950	1	0.164	312963.2
1466	1951	1	0.164	312963.2
1487	1952	1	0.164	312963.2
1495	1953	1	0.164	312963.2
1494	1954	1	0.164	312963.2
1515	1955	1	0.164	312963.2
1523	1956	1	0.164	312963.2
1522	1957	1	0.164	312963.2
1543	1958	1	0.164	312963.2
1551	1959	1	0.164	312963.2
1550	1960	1	0.164	312963.2
1571	1961	1	0.164	312963.2
1579	1962	1	0.164	312963.2
1578	1963	1	0.164	312963.2
1599	1964	1	0.164	312963.2
1607	1965	1	0.164	312963.2
1606	1966	1	0.164	312963.2
1627	1967	1	0.164	312963.2
1635	1968	1	0.164	312963.2
1634	1969	1	0.164	312963.2
1655	1970	1	0.164	312963.2
1663	1971	1	0.164	312963.2
1662	1972	1	0.164	312963.2
1683	1973	1	0.164	312963.2
1691	1974	1	0.164	312963.2
1690	1975	1	0.164	312963.2
1711	1976	1	0.164	312963.2
1719	1977	1	0.164	312963.2
1718	1978	1	0.164	312963.2
1739	1979	1	0.164	312963.2
1747	1980	1	0.164	312963.2
1746	1981	1	0.164	312963.2
1767	1982	1	0.164	312963.2
1775	1983	1	0.164	312963.2
1774	1984	1	0.164	312963.2
1986	1985	1	0.1448	319657.600
1987	1986	1	0.1448	319657.600
1988	1987	1	0.1529	224262.400
1989	1988	1	0.1410	267776.000
1990	1989	1	0.1364	376560.000
1991	1990	1	0.1400	392459.200
1992	1991	1	0.1400	392459.200
1993	1992	1	0.1400	392459.200
1994	1993	1	0.1460	322168.000
1995	1994	1	0.1400	392459.200
1996	1995	1	0.1400	392459.200
1997	1996	1	0.1400	392459.200
1998	1997	1	0.14	0.0
1999	1997	1	0.1400	392459.200
2000	1994	1	0.1400	392459.200
2001	1993	1	0.1400	392459.200
2002	1990	1	0.1400	392459.200
2003	1986	1	0.1340	402500.800
2004	2003	1	0.1400	392459.200
2005	2004	1	0.1400	392459.200
2006	2005	1	0.1400	392459.200
2007	2006	1	0.1433	357313.600
2008	2007	1	0.1345	459403.200
2009	2008	1	0.1345	459403.200
2010	2009	1	0.1345	459403.200
2011	2010	1	0.1345	459403.200
2012	2011	1	0.1345	459403.200
2013	2012	1	0.1345	459403.200
2014	2013	1	0.1345	459403.200
2015	2014	1	0.1433	357313.600
2016	2015	1	0.1340	459403.200
2017	2016	1	0.1426	334720.000
2018	2017	1	0.1157	543920.000
2019	2016	1	0.1365	459403.200
2020	2019	1	0.1367	456892.800
2021	2020	1	0.1426	334720.000
2022	2021	1	0.1157	543920.000
2023	2020	1	0.1426	334720.000
2024	2023	1	0.1157	543920.000
2025	2019	1	0.1360	284512.000
2026	2015	1	0.1510	265265.600
2027	2026	1	0.1510	265265.600
2028	2027	1	0.1400	392459.200
2029	2028	1	0.1400	392459.200
2030	2029	1	0.1400	392459.200
2031	2030	1	0.1400	392459.200
2032	2027	1	0.1400	392459.200
2033	2026	1	0.1529	224262.400
2034	2033	1	0.1360	307105.600
2035	2033	1	0.1360	307105.600
2036	2033	1	0.1360	307105.600
2037	2011	1	0.1510	265265.600
2038	2037	1	0.1529	224262.400
2039	2038	1	0.1529	224262.400
2040	2038	1	0.1529	224262.400
2041	2009	1	0.1510	265265.600
2042	2006	1	0.1400	392459.200
2043	2003	1	0.1400	392459.200
2044	1985	1	0.1090	284512.000
2045	1985	1	0.1090	284512.000
2046	1985	1	0.1090	284512.000
2047	1987	1	0.1090	284512.000
2048	1987	1	0.1090	284512.000
2049	1988	1	0.1090	284512.000
2050	1988	1	0.1090	284512.000
2051	1991	1	0.1080	307105.600
2052	1992	1	0.1080	307105.600
2053	1995	1	0.1080	307105.600
2054	1996	1	0.1080	307105.600
2055	1998	1	0.14	0.0
2056	1999	1	0.1080	307105.600
2057	2000	1	0.1080	307105.600
2058	2001	1	0.1080	307105.600
2059	2002	1	0.1080	307105.600
2060	2004	1	0.1080	307105.600
2061	2005	1	0.1080	307105.600
2062	2007	1	0.1080	284512.000
2063	2008	1	0.1080	284512.000
2064	2010	1	0.1050	345196.736
2065	2012	1	0.1080	284512.000
2066	2013	1	0.1080	284512.000
2067	2014	1	0.1080	284512.000
2068	2028	1	0.1080	307105.600
2069	2029	1	0.1080	307105.600
2070	2030	1	0.1080	307105.600
2071	2031	1	0.1080	307105.600
2072	2032	1	0.1080	307105.600
2073	2037	1	0.1090	284512.000
2074	2037	1	0.1090	284512.000
2075	2039	1	0.1090	284512.000
2076	2039	1	0.1090	284512.000
2077	2039	1	0.1090	284512.000
2078	2040	1	0.1090	284512.000
2079	2040	1	0.1090	284512.000
2080	2040	1	0.1090	284512.000
2081	2041	1	0.1090	284512.000
2082	2041	1	0.1090	284512.000
2083	2042	1	0.1080	307105.600
2084	2043	1	0.1080	307105.600
2000	1999	1	0.1400	392459.200
2002	2001	1	0.1400	392459.200
2026	2025	1	0.1410	267776.000
2032	2031	1	0.1400	392459.200
2041	2038	1	0.1529	224262.400
2043	2042	1	0.1400	392459.200
2086	2085	1	0.1448	319657.600
2087	2086	1	0.1448	319657.600
2088	2087	1	0.1529	224262.400
2089	2088	1	0.1410	267776.000
2090	2089	1	0.1364	376560.000
2091	2090	1	0.1400	392459.200
2092	2091	1	0.1400	392459.200
2093	2092	1	0.1400	392459.200
2094	2093	1	0.1460	322168.000
2095	2094	1	0.1400	392459.200
2096	2095	1	0.1400	392459.200
2097	2096	1	0.1400	392459.200
2098	2097	1	0.14	0.0
2099	2097	1	0.1400	392459.200
2100	2094	1	0.1400	392459.200
2101	2093	1	0.1400	392459.200
2102	2090	1	0.1400	392459.200
2103	2086	1	0.1340	402500.800
2104	2103	1	0.1400	392459.200
2105	2104	1	0.1400	392459.200
2106	2105	1	0.1400	392459.200
2107	2106	1	0.1433	357313.600
2108	2107	1	0.1345	459403.200
2109	2108	1	0.1345	459403.200
2110	2109	1	0.1345	459403.200
2111	2110	1	0.1345	459403.200
2112	2111	1	0.1345	459403.200
2113	2112	1	0.1345	459403.200
2114	2113	1	0.1345	459403.200
2115	2114	1	0.1433	357313.600
2116	2115	1	0.1340	459403.200
2117	2116	1	0.1426	334720.000
2118	2117	1	0.1157	543920.000
2119	2116	1	0.1365	459403.200
2120	2119	1	0.1367	456892.800
2121	2120	1	0.1426	334720.000
2122	2121	1	0.1157	543920.000
2123	2120	1	0.1426	334720.000
2124	2123	1	0.1157	543920.000
2125	2119	1	0.1360	284512.000
2126	2115	1	0.1510	265265.600
2127	2126	1	0.1510	265265.600
2128	2127	1	0.1400	392459.200
2129	2128	1	0.1400	392459.200
2130	2129	1	0.1400	392459.200
2131	2130	1	0.1400	392459.200
2132	2127	1	0.1400	392459.200
2133	2126	1	0.1529	224262.400
2134	2133	1	0.1360	307105.600
2135	2133	1	0.1360	307105.600
2136	2133	1	0.1360	307105.600
2137	2111	1	0.1510	265265.600
2138	2137	1	0.1529	224262.400
2139	2138	1	0.1529	224262.400
2140	2138	1	0.1529	224262.400
2141	2109	1	0.1510	265265.600
2142	2106	1	0.1400	392459.200
2143	2103	1	0.1400	392459.200
2144	2085	1	0.1090	284512.000
2145	2085	1	0.1090	284512.000
2146	2085	1	0.1090	284512.000
2147	2087	1	0.1090	284512.000
2148	2087	1	0.1090	284512.000
2149	2088	1	0.1090	284512.000
2150	2088	1	0.1090	284512.000
2151	2091	1	0.1080	307105.600
2152	2092	1	0.1080	307105.600
2153	2095	1	0.1080	307105.600
2154	2096	1	0.1080	307105.600
2155	2098	1	0.14	0.0
2156	2099	1	0.1080	307105.600
2157	2100	1	0.1080	307105.600
2158	2101	1	0.1080	307105.600
2159	2102	1	0.1080	307105.600
2160	2104	1	0.1080	307105.600
2161	2105	1	0.1080	307105.600
2162	2107	1	0.1080	284512.000
2163	2108	1	0.1080	284512.000
2164	2110	1	0.1050	345196.736
2165	2112	1	0.1080	284512.000
2166	2113	1	0.1080	284512.000
2167	2114	1	0.1080	284512.000
2168	2128	1	0.1080	307105.600
2169	2129	1	0.1080	307105.600
2170	2130	1	0.1080	307105.600
2171	2131	1	0.1080	307105.600
2172	2132	1	0.1080	307105.600
2173	2137	1	0.1090	284512.000
2174	2137	1	0.1090	284512.000
2175	2139	1	0.1090	284512.000
2176	2139	1	0.1090	284512.000
2177	2139	1	0.1090	284512.000
2178	2140	1	0.1090	284512.000
2179	2140	1	0.1090	284512.000
2180	2140	1	0.1090	284512.000
2181	2141	1	0.1090	284512.000
2182	2141	1	0.1090	284512.000
2183	2142	1	0.1080	307105.600
2184	2143	1	0.1080	307105.600
2100	2099	1	0.1400	392459.200
2102	2101	1	0.1400	392459.200
2126	2125	1	0.1410	267776.000
2132	2131	1	0.1400	392459.200
2141	2138	1	0.1529	224262.400
2143	2142	1	0.1400	392459.200
2186	2185	1	0.1448	319657.600
2187	2186	1	0.1448	319657.600
2188	2187	1	0.1529	224262.400
2189	2188	1	0.1410	267776.000
2190	2189	1	0.1364	376560.000
2191	2190	1	0.1400	392459.200
2192	2191	1	0.1400	392459.200
2193	2192	1	0.1400	392459.200
2194	2193	1	0.1460	322168.000
2195	2194	1	0.1400	392459.200
2196	2195	1	0.1400	392459.200
2197	2196	1	0.1400	392459.200
2198	2197	1	0.14	0.0
2199	2197	1	0.1400	392459.200
2200	2194	1	0.1400	392459.200
2201	2193	1	0.1400	392459.200
2202	2190	1	0.1400	392459.200
2203	2186	1	0.1340	402500.800
2204	2203	1	0.1400	392459.200
2205	2204	1	0.1400	392459.200
2206	2205	1	0.1400	392459.200
2207	2206	1	0.1433	357313.600
2208	2207	1	0.1345	459403.200
2209	2208	1	0.1345	459403.200
2210	2209	1	0.1345	459403.200
2211	2210	1	0.1345	459403.200
2212	2211	1	0.1345	459403.200
2213	2212	1	0.1345	459403.200
2214	2213	1	0.1345	459403.200
2215	2214	1	0.1433	357313.600
2216	2215	1	0.1340	459403.200
2217	2216	1	0.1426	334720.000
2218	2217	1	0.1157	543920.000
2219	2216	1	0.1365	459403.200
2220	2219	1	0.1367	456892.800
2221	2220	1	0.1426	334720.000
2222	2221	1	0.1157	543920.000
2223	2220	1	0.1426	334720.000
2224	2223	1	0.1157	543920.000
2225	2219	1	0.1360	284512.000
2226	2215	1	0.1510	265265.600
2227	2226	1	0.1510	265265.600
2228	2227	1	0.1400	392459.200
2229	2228	1	0.1400	392459.200
2230	2229	1	0.1400	392459.200
2231	2230	1	0.1400	392459.200
2232	2227	1	0.1400	392459.200
2233	2226	1	0.1529	224262.400
2234	2233	1	0.1360	307105.600
2235	2233	1	0.1360	307105.600
2236	2233	1	0.1360	307105.600
2237	2211	1	0.1510	265265.600
2238	2237	1	0.1529	224262.400
2239	2238	1	0.1529	224262.400
2240	2238	1	0.1529	224262.400
2241	2209	1	0.1510	265265.600
2242	2206	1	0.1400	392459.200
2243	2203	1	0.1400	392459.200
2244	2185	1	0.1090	284512.000
2245	2185	1	0.1090	284512.000
2246	2185	1	0.1090	284512.000
2247	2187	1	0.1090	284512.000
2248	2187	1	0.1090	284512.000
2249	2188	1	0.1090	284512.000
2250	2188	1	0.1090	284512.000
2251	2191	1	0.1080	307105.600
2252	2192	1	0.1080	307105.600
2253	2195	1	0.1080	307105.600
2254	2196	1	0.1080	307105.600
2255	2198	1	0.14	0.0
2256	2199	1	0.1080	307105.600
2257	2200	1	0.1080	307105.600
2258	2201	1	0.1080	307105.600
2259	2202	1	0.1080	307105.600
2260	2204	1	0.1080	307105.600
2261	2205	1	0.1080	307105.600
2262	2207	1	0.1080	284512.000
2263	2208	1	0.1080	284512.000
2264	2210	1	0.1050	345196.736
2265	2212	1	0.1080	284512.000
2266	2213	1	0.1080	284512.000
2267	2214	1	0.1080	284512.000
2268	2228	1	0.1080	307105.600
2269	2229	1	0.1080	307105.600
2270	2230	1	0.1080	307105.600
2271	2231	1	0.1080	307105.600
2272	2232	1	0.1080	307105.600
2273	2237	1	0.1090	284512.000
2274	2237	1	0.1090	284512.000
2275	2239	1	0.1090	284512.000
2276	2239	1	0.1090	284512.000
2277	2239	1	0.1090	284512.000
2278	2240	1	0.1090	284512.000
2279	2240	1	0.1090	284512.000
2280	2240	1	0.1090	284512.000
2281	2241	1	0.1090	284512.000
2282	2241	1	0.1090	284512.000
2283	2242	1	0.1080	307105.600
2284	2243	1	0.1080	307105.600
2200	2199	1	0.1400	392459.200
2202	2201	1	0.1400	392459.200
2226	2225	1	0.1410	267776.000
2232	2231	1	0.1400	392459.200
2241	2238	1	0.1529	224262.400
2243	2242	1	0.1400	392459.200
2286	2285	1	0.1448	319657.600
2287	2286	1	0.1448	319657.600
2288	2287	1	0.1529	224262.400
2289	2288	1	0.1410	267776.000
2290	2289	1	0.1364	376560.000
2291	2290	1	0.1400	392459.200
2292	2291	1	0.1400	392459.200
2293	2292	1	0.1400	392459.200
2294	2293	1	0.1460	322168.000
2295	2294	1	0.1400	392459.200
2296	2295	1	0.1400	392459.200
2297	2296	1	0.1400	392459.200
2298	2297	1	0.14	0.0
2299	2297	1	0.1400	392459.200
2300	2294	1	0.1400	392459.200
2301	2293	1	0.1400	392459.200
2302	2290	1	0.1400	392459.200
2303	2286	1	0.1340	402500.800
2304	2303	1	0.1400	392459.200
2305	2304	1	0.1400	392459.200
2306	2305	1	0.1400	392459.200
2307	2306	1	0.1433	357313.600
2308	2307	1	0.1345	459403.200
2309	2308	1	0.1345	459403.200
2310	2309	1	0.1345	459403.200
2311	2310	1	0.1345	459403.200
2312	2311	1	0.1345	459403.200
2313	2312	1	0.1345	459403.200
2314	2313	1	0.1345	459403.200
2315	2314	1	0.1433	357313.600
2316	2315	1	0.1340	459403.200
2317	2316	1	0.1426	334720.000
2318	2317	1	0.1157	543920.000
2319	2316	1	0.1365	459403.200
2320	2319	1	0.1367	456892.800
2321	2320	1	0.1426	334720.000
2322	2321	1	0.1157	543920.000
2323	2320	1	0.1426	334720.000
2324	2323	1	0.1157	543920.000
2325	2319	1	0.1360	284512.000
2326	2315	1	0.1510	265265.600
2327	2326	1	0.1510	265265.600
2328	2327	1	0.1400	392459.200
2329	2328	1	0.1400	392459.200
2330	2329	1	0.1400	392459.200
2331	2330	1	0.1400	392459.200
2332	2327	1	0.1400	392459.200
2333	2326	1	0.1529	224262.400
2334	2333	1	0.1360	307105.600
2335	2333	1	0.1360	307105.600
2336	2333	1	0.1360	307105.600
2337	2311	1	0.1510	265265.600
2338	2337	1	0.1529	224262.400
2339	2338	1	0.1529	224262.400
2340	2338	1	0.1529	224262.400
2341	2309	1	0.1510	265265.600
2342	2306	1	0.1400	392459.200
2343	2303	1	0.1400	392459.200
2344	2285	1	0.1090	284512.000
2345	2285	1	0.1090	284512.000
2346	2285	1	0.1090	284512.000
2347	2287	1	0.1090	284512.000
2348	2287	1	0.1090	284512.000
2349	2288	1	0.1090	284512.000
2350	2288	1	0.1090	284512.000
2351	2291	1	0.1080	307105.600
2352	2292	1	0.1080	307105.600
2353	2295	1	0.1080	307105.600
2354	2296	1	0.1080	307105.600
2355	2298	1	0.14	0.0
2356	2299	1	0.1080	307105.600
2357	2300	1	0.1080	307105.600
2358	2301	1	0.1080	307105.600
2359	2302	1	0.1080	307105.600
2360	2304	1	0.1080	307105.600
2361	2305	1	0.1080	307105.600
2362	2307	1	0.1080	284512.000
2363	2308	1	0.1080	284512.000
2364	2310	1	0.1050	345196.736
2365	2312	1	0.1080	284512.000
2366	2313	1	0.1080	284512.000
2367	2314	1	0.1080	284512.000
2368	2328	1	0.1080	307105.600
2369	2329	1	0.1080	307105.600
2370	2330	1	0.1080	307105.600
2371	2331	1	0.1080	307105.600
2372	2332	1	0.1080	307105.600
2373	2337	1	0.1090	284512.000
2374	2337	1	0.1090	284512.000
2375	2339	1	0.1090	284512.000
2376	2339	1	0.1090	284512.000
2377	2339	1	0.1090	284512.000
2378	2340	1	0.1090	284512.000
2379	2340	1	0.1090	284512.000
2380	2340	1	0.1090	284512.000
2381	2341	1	0.1090	284512.000
2382	2341	1	0.1090	284512.000
2383	2342	1	0.1080	307105.600
2384	2343	1	0.1080	307105.600
2300	2299	1	0.1400	392459.200
2302	2301	1	0.1400	392459.200
2326	2325	1	0.1410	267776.000
2332	2331	1	0.1400	392459.200
2341	2338	1	0.1529	224262.400
2343	2342	1	0.1400	392459.200
2386	2385	1	0.1448	319657.600
2387	2386	1	0.1448	319657.600
2388	2387	1	0.1529	224262.400
2389	2388	1	0.1410	267776.000
2390	2389	1	0.1364	376560.000
2391	2390	1	0.1400	392459.200
2392	2391	1	0.1400	392459.200
2393	2392	1	0.1400	392459.200
2394	2393	1	0.1460	322168.000
2395	2394	1	0.1400	392459.200
2396	2395	1	0.1400	392459.200
2397	2396	1	0.1400	392459.200
2398	2397	1	0.14	0.0
2399	2397	1	0.1400	392459.200
2400	2394	1	0.1400	392459.200
2401	2393	1	0.1400	392459.200
2402	2390	1	0.1400	392459.200
2403	2386	1	0.1340	402500.800
2404	2403	1	0.1400	392459.200
2405	2404	1	0.1400	392459.200
2406	2405	1	0.1400	392459.200
2407	2406	1	0.1433	357313.600
2408	2407	1	0.1345	459403.200
2409	2408	1	0.1345	459403.200
2410	2409	1	0.1345	459403.200
2411	2410	1	0.1345	459403.200
2412	2411	1	0.1345	459403.200
2413	2412	1	0.1345	459403.200
2414	2413	1	0.1345	459403.200
2415	2414	1	0.1433	357313.600
2416	2415	1	0.1340	459403.200
2417	2416	1	0.1426	334720.000
2418	2417	1	0.1157	543920.000
2419	2416	1	0.1365	459403.200
2420	2419	1	0.1367	456892.800
2421	2420	1	0.1426	334720.000
2422	2421	1	0.1157	543920.000
2423	2420	1	0.1426	334720.000
2424	2423	1	0.1157	543920.000
2425	2419	1	0.1360	284512.000
2426	2415	1	0.1510	265265.600
2427	2426	1	0.1510	265265.600
2428	2427	1	0.1400	392459.200
2429	2428	1	0.1400	392459.200
2430	2429	1	0.1400	392459.200
2431	2430	1	0.1400	392459.200
2432	2427	1	0.1400	392459.200
2433	2426	1	0.1529	224262.400
2434	2433	1	0.1360	307105.600
2435	2433	1	0.1360	307105.600
2436	2433	1	0.1360	307105.600
2437	2411	1	0.1510	265265.600
2438	2437	1	0.1529	224262.400
2439	2438	1	0.1529	224262.400
2440	2438	1	0.1529	224262.400
2441	2409	1	0.1510	265265.600
2442	2406	1	0.1400	392459.200
2443	2403	1	0.1400	392459.200
2444	2385	1	0.1090	284512.000
2445	2385	1	0.1090	284512.000
2446	2385	1	0.1090	284512.000
2447	2387	1	0.1090	284512.000
2448	2387	1	0.1090	284512.000
2449	2388	1	0.1090	284512.000
2450	2388	1	0.1090	284512.000
2451	2391	1	0.1080	307105.600
2452	2392	1	0.1080	307105.600
2453	2395	1	0.1080	307105.600
2454	2396	1	0.1080	307105.600
2455	2398	1	0.14	0.0
2456	2399	1	0.1080	307105.600
2457	2400	1	0.1080	307105.600
2458	2401	1	0.1080	307105.600
2459	2402	1	0.1080	307105.600
2460	2404	1	0.1080	307105.600
2461	2405	1	0.1080	307105.600
2462	2407	1	0.1080	284512.000
2463	2408	1	0.1080	284512.000
2464	2410	1	0.1050	345196.736
2465	2412	1	0.1080	284512.000
2466	2413	1	0.1080	284512.000
2467	2414	1	0.1080	284512.000
2468	2428	1	0.1080	307105.600
2469	2429	1	0.1080	307105.600
2470	2430	1	0.1080	307105.600
2471	2431	1	0.1080	307105.600
2472	2432	1	0.1080	307105.600
2473	2437	1	0.1090	284512.000
2474	2437	1	0.1090	284512.000
2475	2439	1	0.1090	284512.000
2476	2439	1	0.1090	284512.000
2477	2439	1	0.1090	284512.000
2478	2440	1	0.1090	284512.000
2479	2440	1	0.1090	284512.000
2480	2440	1	0.1090	284512.000
2481	2441	1	0.1090	284512.000
2482	2441	1	0.1090	284512.000
2483	2442	1	0.1080	307105.600
2484	2443	1	0.1080	307105.600
2400	2399	1	0.1400	392459.200
2402	2401	1	0.1400	392459.200
2426	2425	1	0.1410	267776.000
2432	2431	1	0.1400	392459.200
2441	2438	1	0.1529	224262.400
2443	2442	1	0.1400	392459.200
2486	2485	1	0.1448	319657.600
2487	2486	1	0.1448	319657.600
2488	2487	1	0.1529	224262.400
2489	2488	1	0.1410	267776.000
2490	2489	1	0.1364	376560.000
2491	2490	1	0.1400	392459.200
2492	2491	1	0.1400	392459.200
2493	2492	1	0.1400	392459.200
2494	2493	1	0.1460	322168.000
2495	2494	1	0.1400	392459.200
2496	2495	1	0.1400	392459.200
2497	2496	1	0.1400	392459.200
2498	2497	1	0.14	0.0
2499	2497	1	0.1400	392459.200
2500	2494	1	0.1400	392459.200
2501	2493	1	0.1400	392459.200
2502	2490	1	0.1400	392459.200
2503	2486	1	0.1340	402500.800
2504	2503	1	0.1400	392459.200
2505	2504	1	0.1400	392459.200
2506	2505	1	0.1400	392459.200
2507	2506	1	0.1433	357313.600
2508	2507	1	0.1345	459403.200
2509	2508	1	0.1345	459403.200
2510	2509	1	0.1345	459403.200
2511	2510	1	0.1345	459403.200
2512	2511	1	0.1345	459403.200
2513	2512	1	0.1345	459403.200
2514	2513	1	0.1345	459403.200
2515	2514	1	0.1433	357313.600
2516	2515	1	0.1340	459403.200
2517	2516	1	0.1426	334720.000
2518	2517	1	0.1157	543920.000
2519	2516	1	0.1365	459403.200
2520	2519	1	0.1367	456892.800
2521	2520	1	0.1426	334720.000
2522	2521	1	0.1157	543920.000
2523	2520	1	0.1426	334720.000
2524	2523	1	0.1157	543920.000
2525	2519	1	0.1360	284512.000
2526	2515	1	0.1510	265265.600
2527	2526	1	0.1510	265265.600
2528	2527	1	0.1400	392459.200
2529	2528	1	0.1400	392459.200
2530	2529	1	0.1400	392459.200
2531	2530	1	0.1400	392459.200
2532	2527	1	0.1400	392459.200
2533	2526	1	0.1529	224262.400
2534	2533	1	0.1360	307105.600
2535	2533	1	0.1360	307105.600
2536	2533	1	0.1360	307105.600
2537	2511	1	0.1510	265265.600
2538	2537	1	0.1529	224262.400
2539	2538	1	0.1529	224262.400
2540	2538	1	0.1529	224262.400
2541	2509	1	0.1510	265265.600
2542	2506	1	0.1400	392459.200
2543	2503	1	0.1400	392459.200
2544	2485	1	0.1090	284512.000
2545	2485	1	0.1090	284512.000
2546	2485	1	0.1090	284512.000
2547	2487	1	0.1090	284512.000
2548	2487	1	0.1090	284512.000
2549	2488	1	0.1090	284512.000
2550	2488	1	0.1090	284512.000
2551	2491	1	0.1080	307105.600
2552	2492	1	0.1080	307105.600
2553	2495	1	0.1080	307105.600
2554	2496	1	0.1080	307105.600
2555	2498	1	0.14	0.0
2556	2499	1	0.1080	307105.600
2557	2500	1	0.1080	307105.600
2558	2501	1	0.1080	307105.600
2559	2502	1	0.1080	307105.600
2560	2504	1	0.1080	307105.600
2561	2505	1	0.1080	307105.600
2562	2507	1	0.1080	284512.000
2563	2508	1	0.1080	284512.000
2564	2510	1	0.1050	345196.736
2565	2512	1	0.1080	284512.000
2566	2513	1	0.1080	284512.000
2567	2514	1	0.1080	284512.000
2568	2528	1	0.1080	307105.600
2569	2529	1	0.1080	307105.600
2570	2530	1	0.1080	307105.600
2571	2531	1	0.1080	307105.600
2572	2532	1	0.1080	307105.600
2573	2537	1	0.1090	284512.000
2574	2537	1	0.1090	284512.000
2575	2539	1	0.1090	284512.000
2576	2539	1	0.1090	284512.000
2577	2539	1	0.1090	284512.000
2578	2540	1	0.1090	284512.000
2579	2540	1	0.1090	284512.000
2580	2540	1	0.1090	284512.000
2581	2541	1	0.1090	284512.000
2582	2541	1	0.1090	284512.000
2583	2542	1	0.1080	307105.600
2584	2543	1	0.1080	307105.600
2500	2499	1	0.1400	392459.200
2502	2501	1	0.1400	392459.200
2526	2525	1	0.1410	267776.000
2532	2531	1	0.1400	392459.200
2541	2538	1	0.1529	224262.400
2543	2542	1	0.1400	392459.200
2586	2585	1	0.1448	319657.600
2587	2586	1	0.1448	319657.600
2588	2587	1	0.1529	224262.400
2589	2588	1	0.1410	267776.000
2590	2589	1	0.1364	376560.000
2591	2590	1	0.1400	392459.200
2592	2591	1	0.1400	392459.200
2593	2592	1	0.1400	392459.200
2594	2593	1	0.1460	322168.000
2595	2594	1	0.1400	392459.200
2596	2595	1	0.1400	392459.200
2597	2596	1	0.1400	392459.200
2598	2597	1	0.14	0.0
2599	2597	1	0.1400	392459.200
2600	2594	1	0.1400	392459.200
2601	2593	1	0.1400	392459.200
2602	2590	1	0.1400	392459.200
2603	2586	1	0.1340	402500.800
2604	2603	1	0.1400	392459.200
2605	2604	1	0.1400	392459.200
2606	2605	1	0.1400	392459.200
2607	2606	1	0.1433	357313.600
2608	2607	1	0.1345	459403.200
2609	2608	1	0.1345	459403.200
2610	2609	1	0.1345	459403.200
2611	2610	1	0.1345	459403.200
2612	2611	1	0.1345	459403.200
2613	2612	1	0.1345	459403.200
2614	2613	1	0.1345	459403.200
2615	2614	1	0.1433	357313.600
2616	2615	1	0.1340	459403.200
2617	2616	1	0.1426	334720.000
2618	2617	1	0.1157	543920.000
2619	2616	1	0.1365	459403.200
2620	2619	1	0.1367	456892.800
2621	2620	1	0.1426	334720.000
2622	2621	1	0.1157	543920.000
2623	2620	1	0.1426	334720.000
2624	2623	1	0.1157	543920.000
2625	2619	1	0.1360	284512.000
2626	2615	1	0.1510	265265.600
2627	2626	1	0.1510	265265.600
2628	2627	1	0.1400	392459.200
2629	2628	1	0.1400	392459.200
2630	2629	1	0.1400	392459.200
2631	2630	1	0.1400	392459.200
2632	2627	1	0.1400	392459.200
2633	2626	1	0.1529	224262.400
2634	2633	1	0.1360	307105.600
2635	2633	1	0.1360	307105.600
2636	2633	1	0.1360	307105.600
2637	2611	1	0.1510	265265.600
2638	2637	1	0.1529	224262.400
2639	2638	1	0.1529	224262.400
2640	2638	1	0.1529	224262.400
2641	2609	1	0.1510	265265.600
2642	2606	1	0.1400	392459.200
2643	2603	1	0.1400	392459.200
2644	2585	1	0.1090	284512.000
2645	2585	1	0.1090	284512.000
2646	2585	1	0.1090	284512.000
2647	2587	1	0.1090	284512.000
2648	2587	1	0.1090	284512.000
2649	2588	1	0.1090	284512.000
2650	2588	1	0.1090	284512.000
2651	2591	1	0.1080	307105.600
2652	2592	1	0.1080	307105.600
2653	2595	1	0.1080	307105.600
2654	2596	1	0.1080	307105.600
2655	2598	1	0.14	0.0
2656	2599	1	0.1080	307105.600
2657	2600	1	0.1080	307105.600
2658	2601	1	0.1080	307105.600
2659	2602	1	0.1080	307105.600
2660	2604	1	0.1080	307105.600
2661	2605	1	0.1080	307105.600
2662	2607	1	0.1080	284512.000
2663	2608	1	0.1080	284512.000
2664	2610	1	0.1050	345196.736
2665	2612	1	0.1080	284512.000
2666	2613	1	0.1080	284512.000
2667	2614	1	0.1080	284512.000
2668	2628	1	0.1080	307105.600
2669	2629	1	0.1080	307105.600
2670	2630	1	0.1080	307105.600
2671	2631	1	0.1080	307105.600
2672	2632	1	0.1080	307105.600
2673	2637	1	0.1090	284512.000
2674	2637	1	0.1090	284512.000
2675	2639	1	0.1090	284512.000
2676	2639	1	0.1090	284512.000
2677	2639	1	0.1090	284512.000
2678	2640	1	0.1090	284512.000
2679	2640	1	0.1090	284512.000
2680	2640	1	0.1090	284512.000
2681	2641	1	0.1090	284512.000
2682	2641	1	0.1090	284512.000
2683	2642	1	0.1080	307105.600
2684	2643	1	0.1080	307105.600
2600	2599	1	0.1400	392459.200
2602	2601	1	0.1400	392459.200
2626	2625	1	0.1410	267776.000
2632	2631	1	0.1400	392459.200
2641	2638	1	0.1529	224262.400
2643	2642	1	0.1400	392459.200
2686	2685	1	0.1448	319657.600
2687	2686	1	0.1448	319657.600
2688	2687	1	0.1529	224262.400
2689	2688	1	0.1410	267776.000
2690	2689	1	0.1364	376560.000
2691	2690	1	0.1400	392459.200
2692	2691	1	0.1400	392459.200
2693	2692	1	0.1400	392459.200
2694	2693	1	0.1460	322168.000
2695	2694	1	0.1400	392459.200
2696	2695	1	0.1400	392459.200
2697	2696	1	0.1400	392459.200
2698	2697	1	0.14	0.0
2699	2697	1	0.1400	392459.200
2700	2694	1	0.1400	392459.200
2701	2693	1	0.1400	392459.200
2702	2690	1	0.1400	392459.200
2703	2686	1	0.1340	402500.800
2704	2703	1	0.1400	392459.200
2705	2704	1	0.1400	392459.200
2706	2705	1	0.1400	392459.200
2707	2706	1	0.1433	357313.600
2708	2707	1	0.1345	459403.200
2709	2708	1	0.1345	459403.200
2710	2709	1	0.1345	459403.200
2711	2710	1	0.1345	459403.200
2712	2711	1	0.1345	459403.200
2713	2712	1	0.1345	459403.200
2714	2713	1	0.1345	459403.200
2715	2714	1	0.1433	357313.600
2716	2715	1	0.1340	459403.200
2717	2716	1	0.1426	334720.000
2718	2717	1	0.1157	543920.000
2719	2716	1	0.1365	459403.200
2720	2719	1	0.1367	456892.800
2721	2720	1	0.1426	334720.000
2722	2721	1	0.1157	543920.000
2723	2720	1	0.1426	334720.000
2724	2723	1	0.1157	543920.000
2725	2719	1	0.1360	284512.000
2726	2715	1	0.1510	265265.600
2727	2726	1	0.1510	265265.600
2728	2727	1	0.1400	392459.200
2729	2728	1	0.1400	392459.200
2730	2729	1	0.1400	392459.200
2731	2730	1	0.1400	392459.200
2732	2727	1	0.1400	392459.200
2733	2726	1	0.1529	224262.400
2734	2733	1	0.1360	307105.600
2735	2733	1	0.1360	307105.600
2736	2733	1	0.1360	307105.600
2737	2711	1	0.1510	265265.600
2738	2737	1	0.1529	224262.400
2739	2738	1	0.1529	224262.400
2740	2738	1	0.1529	224262.400
2741	2709	1	0.1510	265265.600
2742	2706	1	0.1400	392459.200
2743	2703	1	0.1400	392459.200
2744	2685	1	0.1090	284512.000
2745	2685	1	0.1090	284512.000
2746	2685	1	0.1090	284512.000
2747	2687	1	0.1090	284512.000
2748	2687	1	0.1090	284512.000
2749	2688	1	0.1090	284512.000
2750	2688	1	0.1090	284512.000
2751	2691	1	0.1080	307105.600
2752	2692	1	0.1080	307105.600
2753	2695	1	0.1080	307105.600
2754	2696	1	0.1080	307105.600
2755	2698	1	0.14	0.0
2756	2699	1	0.1080	307105.600
2757	2700	1	0.1080	307105.600
2758	2701	1	0.1080	307105.600
2759	2702	1	0.1080	307105.600
2760	2704	1	0.1080	307105.600
2761	2705	1	0.1080	307105.600
2762	2707	1	0.1080	284512.000
2763	2708	1	0.1080	284512.000
2764	2710	1	0.1050	345196.736
2765	2712	1	0.1080	284512.000
2766	2713	1	0.1080	284512.000
2767	2714	1	0.1080	284512.000
2768	2728	1	0.1080	307105.600
2769	2729	1	0.1080	307105.600
2770	2730	1	0.1080	307105.600
2771	2731	1	0.1080	307105.600
2772	2732	1	0.1080	307105.600
2773	2737	1	0.1090	284512.000
2774	2737	1	0.1090	284512.000
2775	2739	1	0.1090	284512.000
2776	2739	1	0.1090	284512.000
2777	2739	1	0.1090	284512.000
2778	2740	1	0.1090	284512.000
2779	2740	1	0.1090	284512.000
2780	2740	1	0.1090	284512.000
2781	2741	1	0.1090	284512.000
2782	2741	1	0.1090	284512.000
2783	2742	1	0.1080	307105.600
2784	2743	1	0.1080	307105.600
2700	2699	1	0.1400	392459.200
2702	2701	1	0.1400	392459.200
2726	2725	1	0.1410	267776.000
2732	2731	1	0.1400	392459.200
2741	2738	1	0.1529	224262.400
2743	2742	1	0.1400	392459.200
2786	2785	1	0.1448	319657.600
2787	2786	1	0.1448	319657.600
2788	2787	1	0.1529	224262.400
2789	2788	1	0.1410	267776.000
2790	2789	1	0.1364	376560.000
2791	2790	1	0.1400	392459.200
2792	2791	1	0.1400	392459.200
2793	2792	1	0.1400	392459.200
2794	2793	1	0.1460	322168.000
2795	2794	1	0.1400	392459.200
2796	2795	1	0.1400	392459.200
2797	2796	1	0.1400	392459.200
2798	2797	1	0.14	0.0
2799	2797	1	0.1400	392459.200
2800	2794	1	0.1400	392459.200
2801	2793	1	0.1400	392459.200
2802	2790	1	0.1400	392459.200
2803	2786	1	0.1340	402500.800
2804	2803	1	0.1400	392459.200
2805	2804	1	0.1400	392459.200
2806	2805	1	0.1400	392459.200
2807	2806	1	0.1433	357313.600
2808	2807	1	0.1345	459403.200
2809	2808	1	0.1345	459403.200
2810	2809	1	0.1345	459403.200
2811	2810	1	0.1345	459403.200
2812	2811	1	0.1345	459403.200
2813	2812	1	0.1345	459403.200
2814	2813	1	0.1345	459403.200
2815	2814	1	0.1433	357313.600
2816	2815	1	0.1340	459403.200
2817	2816	1	0.1426	334720.000
2818	2817	1	0.1157	543920.000
2819	2816	1	0.1365	459403.200
2820	2819	1	0.1367	456892.800
2821	2820	1	0.1426	334720.000
2822	2821	1	0.1157	543920.000
2823	2820	1	0.1426	334720.000
2824	2823	1	0.1157	543920.000
2825	2819	1	0.1360	284512.000
2826	2815	1	0.1510	265265.600
2827	2826	1	0.1510	265265.600
2828	2827	1	0.1400	392459.200
2829	2828	1	0.1400	392459.200
2830	2829	1	0.1400	392459.200
2831	2830	1	0.1400	392459.200
2832	2827	1	0.1400	392459.200
2833	2826	1	0.1529	224262.400
2834	2833	1	0.1360	307105.600
2835	2833	1	0.1360	307105.600
2836	2833	1	0.1360	307105.600
2837	2811	1	0.1510	265265.600
2838	2837	1	0.1529	224262.400
2839	2838	1	0.1529	224262.400
2840	2838	1	0.1529	224262.400
2841	2809	1	0.1510	265265.600
2842	2806	1	0.1400	392459.200
2843	2803	1	0.1400	392459.200
2844	2785	1	0.1090	284512.000
2845	2785	1	0.1090	284512.000
2846	2785	1	0.1090	284512.000
2847	2787	1	0.1090	284512.000
2848	2787	1	0.1090	284512.000
2849	2788	1	0.1090	284512.000
2850	2788	1	0.1090	284512.000
2851	2791	1	0.1080	307105.600
2852	2792	1	0.1080	307105.600
2853	2795	1	0.1080	307105.600
2854	2796	1	0.1080	307105.600
2855	2798	1	0.14	0.0
2856	2799	1	0.1080	307105.600
2857	2800	1	0.1080	307105.600
2858	2801	1	0.1080	307105.600
2859	2802	1	0.1080	307105.600
2860	2804	1	0.1080	307105.600
2861	2805	1	0.1080	307105.600
2862	2807	1	0.1080	284512.000
2863	2808	1	0.1080	284512.000
2864	2810	1	0.1050	345196.736
2865	2812	1	0.1080	284512.000
2866	2813	1	0.1080	284512.000
2867	2814	1	0.1080	284512.000
2868	2828	1	0.1080	307105.600
2869	2829	1	0.1080	307105.600
2870	2830	1	0.1080	307105.600
2871	2831	1	0.1080	307105.600
2872	2832	1	0.1080	307105.600
2873	2837	1	0.1090	284512.000
2874	2837	1	0.1090	284512.000
2875	2839	1	0.1090	284512.000
2876	2839	1	0.1090	284512.000
2877	2839	1	0.1090	284512.000
2878	2840	1	0.1090	284512.000
2879	2840	1	0.1090	284512.000
2880	2840	1	0.1090	284512.000
2881	2841	1	0.1090	284512.000
2882	2841	1	0.1090	284512.000
2883	2842	1	0.1080	307105.600
2884	2843	1	0.1080	307105.600
2800	2799	1	0.1400	392459.200
2802	2801	1	0.1400	392459.200
2826	2825	1	0.1410	267776.000
2832	2831	1	0.1400	392459.200
2841	2838	1	0.1529	224262.400
2843	2842	1	0.1400	392459.200
2886	2885	1	0.1448	319657.600
2887	2886	1	0.1448	319657.600
2888	2887	1	0.1529	224262.400
2889	2888	1	0.1410	267776.000
2890	2889	1	0.1364	376560.000
2891	2890	1	0.1400	392459.200
2892	2891	1	0.1400	392459.200
2893	2892	1	0.1400	392459.200
2894	2893	1	0.1460	322168.000
2895	2894	1	0.1400	392459.200
2896	2895	1	0.1400	392459.200
2897	2896	1	0.1400	392459.200
2898	2897	1	0.14	0.0
2899	2897	1	0.1400	392459.200
2900	2894	1	0.1400	392459.200
2901	2893	1	0.1400	392459.200
2902	2890	1	0.1400	392459.200
2903	2886	1	0.1340	402500.800
2904	2903	1	0.1400	392459.200
2905	2904	1	0.1400	392459.200
2906	2905	1	0.1400	392459.200
2907	2906	1	0.1433	357313.600
2908	2907	1	0.1345	459403.200
2909	2908	1	0.1345	459403.200
2910	2909	1	0.1345	459403.200
2911	2910	1	0.1345	459403.200
2912	2911	1	0.1345	459403.200
2913	2912	1	0.1345	459403.200
2914	2913	1	0.1345	459403.200
2915	2914	1	0.1433	357313.600
2916	2915	1	0.1340	459403.200
2917	2916	1	0.1426	334720.000
2918	2917	1	0.1157	543920.000
2919	2916	1	0.1365	459403.200
2920	2919	1	0.1367	456892.800
2921	2920	1	0.1426	334720.000
2922	2921	1	0.1157	543920.000
2923	2920	1	0.1426	334720.000
2924	2923	1	0.1157	543920.000
2925	2919	1	0.1360	284512.000
2926	2915	1	0.1510	265265.600
2927	2926	1	0.1510	265265.600
2928	2927	1	0.1400	392459.200
2929	2928	1	0.1400	392459.200
2930	2929	1	0.1400	392459.200
2931	2930	1	0.1400	392459.200
2932	2927	1	0.1400	392459.200
2933	2926	1	0.1529	224262.400
2934	2933	1	0.1360	307105.600
2935	2933	1	0.1360	307105.600
2936	2933	1	0.1360	307105.600
2937	2911	1	0.1510	265265.600
2938	2937	1	0.1529	224262.400
2939	2938	1	0.1529	224262.400
2940	2938	1	0.1529	224262.400
2941	2909	1	0.1510	265265.600
2942	2906	1	0.1400	392459.200
2943	2903	1	0.1400	392459.200
2944	2885	1	0.1090	284512.000
2945	2885	1	0.1090	284512.000
2946	2885	1	0.1090	284512.000
2947	2887	1	0.1090	284512.000
2948	2887	1	0.1090	284512.000
2949	2888	1	0.1090	284512.000
2950	2888	1	0.1090	284512.000
2951	2891	1	0.1080	307105.600
2952	2892	1	0.1080	307105.600
2953	2895	1	0.1080	307105.600
2954	2896	1	0.1080	307105.600
2955	2898	1	0.14	0.0
2956	2899	1	0.1080	307105.600
2957	2900	1	0.1080	307105.600
2958	2901	1	0.1080	307105.600
2959	2902	1	0.1080	307105.600
2960	2904	1	0.1080	307105.600
2961	2905	1	0.1080	307105.600
2962	2907	1	0.1080	284512.000
2963	2908	1	0.1080	284512.000
2964	2910	1	0.1050	345196.736
2965	2912	1	0.1080	284512.000
2966	2913	1	0.1080	284512.000
2967	2914	1	0.1080	284512.000
2968	2928	1	0.1080	307105.600
2969	2929	1	0.1080	307105.600
2970	2930	1	0.1080	307105.600
2971	2931	1	0.1080	307105.600
2972	2932	1	0.1080	307105.600
2973	2937	1	0.1090	284512.000
2974	2937	1	0.1090	284512.000
2975	2939	1	0.1090	284512.000
2976	2939	1	0.1090	284512.000
2977	2939	1	0.1090	284512.000
2978	2940	1	0.1090	284512.000
2979	2940	1	0.1090	284512.000
2980	2940	1	0.1090	284512.000
2981	2941	1	0.1090	284512.000
2982	2941	1	0.1090	284512.000
2983	2942	1	0.1080	307105.600
2984	2943	1	0.1080	307105.600
2900	2899	1	0.1400	392459.200
2902	2901	1	0.1400	392459.200
2926	2925	1	0.1410	267776.000
2932	2931	1	0.1400	392459.200
2941	2938	1	0.1529	224262.400
2943	2942	1	0.1400	392459.200
2986	2985	1	0.1448	319657.600
2987	2986	1	0.1448	319657.600
2988	2987	1	0.1529	224262.400
2989	2988	1	0.1410	267776.000
2990	2989	1	0.1364	376560.000
2991	2990	1	0.1400	392459.200
2992	2991	1	0.1400	392459.200
2993	2992	1	0.1400	392459.200
2994	2993	1	0.1460	322168.000
2995	2994	1	0.1400	392459.200
2996	2995	1	0.1400	392459.200
2997	2996	1	0.1400	392459.200
2998	2997	1	0.14	0.0
2999	2997	1	0.1400	392459.200
3000	2994	1	0.1400	392459.200
3001	2993	1	0.1400	392459.200
3002	2990	1	0.1400	392459.200
3003	2986	1	0.1340	402500.800
3004	3003	1	0.1400	392459.200
3005	3004	1	0.1400	392459.200
3006	3005	1	0.1400	392459.200
3007	3006	1	0.1433	357313.600
3008	3007	1	0.1345	459403.200
3009	3008	1	0.1345	459403.200
3010	3009	1	0.1345	459403.200
3011	3010	1	0.1345	459403.200
3012	3011	1	0.1345	459403.200
3013	3012	1	0.1345	459403.200
3014	3013	1	0.1345	459403.200
3015	3014	1	0.1433	357313.600
3016	3015	1	0.1340	459403.200
3017	3016	1	0.1426	334720.000
3018	3017	1	0.1157	543920.000
3019	3016	1	0.1365	459403.200
3020	3019	1	0.1367	456892.800
3021	3020	1	0.1426	334720.000
3022	3021	1	0.1157	543920.000
3023	3020	1	0.1426	334720.000
3024	3023	1	0.1157	543920.000
3025	3019	1	0.1360	284512.000
3026	3015	1	0.1510	265265.600
3027	3026	1	0.1510	265265.600
3028	3027	1	0.1400	392459.200
3029	3028	1	0.1400	392459.200
3030	3029	1	0.1400	392459.200
3031	3030	1	0.1400	392459.200
3032	3027	1	0.1400	392459.200
3033	3026	1	0.1529	224262.400
3034	3033	1	0.1360	307105.600
3035	3033	1	0.1360	307105.600
3036	3033	1	0.1360	307105.600
3037	3011	1	0.1510	265265.600
3038	3037	1	0.1529	224262.400
3039	3038	1	0.1529	224262.400
3040	3038	1	0.1529	224262.400
3041	3009	1	0.1510	265265.600
3042	3006	1	0.1400	392459.200
3043	3003	1	0.1400	392459.200
3044	2985	1	0.1090	284512.000
3045	2985	1	0.1090	284512.000
3046	2985	1	0.1090	284512.000
3047	2987	1	0.1090	284512.000
3048	2987	1	0.1090	284512.000
3049	2988	1	0.1090	284512.000
3050	2988	1	0.1090	284512.000
3051	2991	1	0.1080	307105.600
3052	2992	1	0.1080	307105.600
3053	2995	1	0.1080	307105.600
3054	2996	1	0.1080	307105.600
3055	2998	1	0.14	0.0
3056	2999	1	0.1080	307105.600
3057	3000	1	0.1080	307105.600
3058	3001	1	0.1080	307105.600
3059	3002	1	0.1080	307105.600
3060	3004	1	0.1080	307105.600
3061	3005	1	0.1080	307105.600
3062	3007	1	0.1080	284512.000
3063	3008	1	0.1080	284512.000
3064	3010	1	0.1050	345196.736
3065	3012	1	0.1080	284512.000
3066	3013	1	0.1080	284512.000
3067	3014	1	0.1080	284512.000
3068	3028	1	0.1080	307105.600
3069	3029	1	0.1080	307105.600
3070	3030	1	0.1080	307105.600
3071	3031	1	0.1080	307105.600
3072	3032	1	0.1080	307105.600
3073	3037	1	0.1090	284512.000
3074	3037	1	0.1090	284512.000
3075	3039	1	0.1090	284512.000
3076	3039	1	0.1090	284512.000
3077	3039	1	0.1090	284512.000
3078	3040	1	0.1090	284512.000
3079	3040	1	0.1090	284512.000
3080	3040	1	0.1090	284512.000
3081	3041	1	0.1090	284512.000
3082	3041	1	0.1090	284512.000
3083	3042	1	0.1080	307105.600
3084	3043	1	0.1080	307105.600
3000	2999	1	0.1400	392459.200
3002	3001	1	0.1400	392459.200
3026	3025	1	0.1410	267776.000
3032	3031	1	0.1400	392459.200
3041	3038	1	0.1529	224262.400
3043	3042	1	0.1400	392459.200
3086	3085	1	0.1448	319657.600
3087	3086	1	0.1448	319657.600
3088	3087	1	0.1529	224262.400
3089	3088	1	0.1410	267776.000
3090	3089	1	0.1364	376560.000
3091	3090	1	0.1400	392459.200
3092	3091	1	0.1400	392459.200
3093	3092	1	0.1400	392459.200
3094	3093	1	0.1460	322168.000
3095	3094	1	0.1400	392459.200
3096	3095	1	0.1400	392459.200
3097	3096	1	0.1400	392459.200
3098	3097	1	0.14	0.0
3099	3097	1	0.1400	392459.200
3100	3094	1	0.1400	392459.200
3101	3093	1	0.1400	392459.200
3102	3090	1	0.1400	392459.200
3103	3086	1	0.1340	402500.800
3104	3103	1	0.1400	392459.200
3105	3104	1	0.1400	392459.200
3106	3105	1	0.1400	392459.200
3107	3106	1	0.1433	357313.600
3108	3107	1	0.1345	459403.200
3109	3108	1	0.1345	459403.200
3110	3109	1	0.1345	459403.200
3111	3110	1	0.1345	459403.200
3112	3111	1	0.1345	459403.200
3113	3112	1	0.1345	459403.200
3114	3113	1	0.1345	459403.200
3115	3114	1	0.1433	357313.600
3116	3115	1	0.1340	459403.200
3117	3116	1	0.1426	334720.000
3118	3117	1	0.1157	543920.000
3119	3116	1	0.1365	459403.200
3120	3119	1	0.1367	456892.800
3121	3120	1	0.1426	334720.000
3122	3121	1	0.1157	543920.000
3123	3120	1	0.1426	334720.000
3124	3123	1	0.1157	543920.000
3125	3119	1	0.1360	284512.000
3126	3115	1	0.1510	265265.600
3127	3126	1	0.1510	265265.600
3128	3127	1	0.1400	392459.200
3129	3128	1	0.1400	392459.200
3130	3129	1	0.1400	392459.200
3131	3130	1	0.1400	392459.200
3132	3127	1	0.1400	392459.200
3133	3126	1	0.1529	224262.400
3134	3133	1	0.1360	307105.600
3135	3133	1	0.1360	307105.600
3136	3133	1	0.1360	307105.600
3137	3111	1	0.1510	265265.600
3138	3137	1	0.1529	224262.400
3139	3138	1	0.1529	224262.400
3140	3138	1	0.1529	224262.400
3141	3109	1	0.1510	265265.600
3142	3106	1	0.1400	392459.200
3143	3103	1	0.1400	392459.200
3144	3085	1	0.1090	284512.000
3145	3085	1	0.1090	284512.000
3146	3085	1	0.1090	284512.000
3147	3087	1	0.1090	284512.000
3148	3087	1	0.1090	284512.000
3149	3088	1	0.1090	284512.000
3150	3088	1	0.1090	284512.000
3151	3091	1	0.1080	307105.600
3152	3092	1	0.1080	307105.600
3153	3095	1	0.1080	307105.600
3154	3096	1	0.1080	307105.600
3155	3098	1	0.14	0.0
3156	3099	1	0.1080	307105.600
3157	3100	1	0.1080	307105.600
3158	3101	1	0.1080	307105.600
3159	3102	1	0.1080	307105.600
3160	3104	1	0.1080	307105.600
3161	3105	1	0.1080	307105.600
3162	3107	1	0.1080	284512.000
3163	3108	1	0.1080	284512.000
3164	3110	1	0.1050	345196.736
3165	3112	1	0.1080	284512.000
3166	3113	1	0.1080	284512.000
3167	3114	1	0.1080	284512.000
3168	3128	1	0.1080	307105.600
3169	3129	1	0.1080	307105.600
3170	3130	1	0.1080	307105.600
3171	3131	1	0.1080	307105.600
3172	3132	1	0.1080	307105.600
3173	3137	1	0.1090	284512.000
3174	3137	1	0.1090	284512.000
3175	3139	1	0.1090	284512.000
3176	3139	1	0.1090	284512.000
3177	3139	1	0.1090	284512.000
3178	3140	1	0.1090	284512.000
3179	3140	1	0.1090	284512.000
3180	3140	1	0.1090	284512.000
3181	3141	1	0.1090	284512.000
3182	3141	1	0.1090	284512.000
3183	3142	1	0.1080	307105.600
3184	3143	1	0.1080	307105.600
3100	3099	1	0.1400	392459.200
3102	3101	1	0.1400	392459.200
3126	3125	1	0.1410	267776.000
3132	3131	1	0.1400	392459.200
3141	3138	1	0.1529	224262.400
3143	3142	1	0.1400	392459.200
3186	3185	1	0.1448	319657.600
3187	3186	1	0.1448	319657.600
3188	3187	1	0.1529	224262.400
3189	3188	1	0.1410	267776.000
3190	3189	1	0.1364	376560.000
3191	3190	1	0.1400	392459.200
3192	3191	1	0.1400	392459.200
3193	3192	1	0.1400	392459.200
3194	3193	1	0.1460	322168.000
3195	3194	1	0.1400	392459.200
3196	3195	1	0.1400	392459.200
3197	3196	1	0.1400	392459.200
3198	3197	1	0.14	0.0
3199	3197	1	0.1400	392459.200
3200	3194	1	0.1400	392459.200
3201	3193	1	0.1400	392459.200
3202	3190	1	0.1400	392459.200
3203	3186	1	0.1340	402500.800
3204	3203	1	0.1400	392459.200
3205	3204	1	0.1400	392459.200
3206	3205	1	0.1400	392459.200
3207	3206	1	0.1433	357313.600
3208	3207	1	0.1345	459403.200
3209	3208	1	0.1345	459403.200
3210	3209	1	0.1345	459403.200
3211	3210	1	0.1345	459403.200
3212	3211	1	0.1345	459403.200
3213	3212	1	0.1345	459403.200
3214	3213	1	0.1345	459403.200
3215	3214	1	0.1433	357313.600
3216	3215	1	0.1340	459403.200
3217	3216	1	0.1426	334720.000
3218	3217	1	0.1157	543920.000
3219	3216	1	0.1365	459403.200
3220	3219	1	0.1367	456892.800
3221	3220	1	0.1426	334720.000
3222	3221	1	0.1157	543920.000
3223	3220	1	0.1426	334720.000
3224	3223	1	0.1157	543920.000
3225	3219	1	0.1360	284512.000
3226	3215	1	0.1510	265265.600
3227	3226	1	0.1510	265265.600
3228	3227	1	0.1400	392459.200
3229	3228	1	0.1400	392459.200
3230	3229	1	0.1400	392459.200
3231	3230	1	0.1400	392459.200
3232	3227	1	0.1400	392459.200
3233	3226	1	0.1529	224262.400
3234	3233	1	0.1360	307105.600
3235	3233	1	0.1360	307105.600
3236	3233	1	0.1360	307105.600
3237	3211	1	0.1510	265265.600
3238	3237	1	0.1529	224262.400
3239	3238	1	0.1529	224262.400
3240	3238	1	0.1529	224262.400
3241	3209	1	0.1510	265265.600
3242	3206	1	0.1400	392459.200
3243	3203	1	0.1400	392459.200
3244	3185	1	0.1090	284512.000
3245	3185	1	0.1090	284512.000
3246	3185	1	0.1090	284512.000
3247	3187	1	0.1090	284512.000
3248	3187	1	0.1090	284512.000
3249	3188	1	0.1090	284512.000
3250	3188	1	0.1090	284512.000
3251	3191	1	0.1080	307105.600
3252	3192	1	0.1080	307105.600
3253	3195	1	0.1080	307105.600
3254	3196	1	0.1080	307105.600
3255	3198	1	0.14	0.0
3256	3199	1	0.1080	307105.600
3257	3200	1	0.1080	307105.600
3258	3201	1	0.1080	307105.600
3259	3202	1	0.1080	307105.600
3260	3204	1	0.1080	307105.600
3261	3205	1	0.1080	307105.600
3262	3207	1	0.1080	284512.000
3263	3208	1	0.1080	284512.000
3264	3210	1	0.1050	345196.736
3265	3212	1	0.1080	284512.000
3266	3213	1	0.1080	284512.000
3267	3214	1	0.1080	284512.000
3268	3228	1	0.1080	307105.600
3269	3229	1	0.1080	307105.600
3270	3230	1	0.1080	307105.600
3271	3231	1	0.1080	307105.600
3272	3232	1	0.1080	307105.600
3273	3237	1	0.1090	284512.000
3274	3237	1	0.1090	284512.000
3275	3239	1	0.1090	284512.000
3276	3239	1	0.1090	284512.000
3277	3239	1	0.1090	284512.000
3278	3240	1	0.1090	284512.000
3279	3240	1	0.1090	284512.000
3280	3240	1	0.1090	284512.000
3281	3241	1	0.1090	284512.000
3282	3241	1	0.1090	284512.000
3283	3242	1	0.1080	307105.600
3284	3243	1	0.1080	307105.600
3200	3199	1	0.1400	392459.200
3202	3201	1	0.1400	392459.200
3226	3225	1	0.1410	267776.000
3232	3231	1	0.1400	392459.200
3241	3238	1	0.1529	224262.400
3243	3242	1	0.1400	392459.200
3286	3285	1	0.1448	319657.600
3287	3286	1	0.1448	319657.600
3288	3287	1	0.1529	224262.400
3289	3288	1	0.1410	267776.000
3290	3289	1	0.1364	376560.000
3291	3290	1	0.1400	392459.200
3292	3291	1	0.1400	392459.200
3293	3292	1	0.1400	392459.200
3294	3293	1	0.1460	322168.000
3295	3294	1	0.1400	392459.200
3296	3295	1	0.1400	392459.200
3297	3296	1	0.1400	392459.200
3298	3297	1	0.14	0.0
3299	3297	1	0.1400	392459.200
3300	3294	1	0.1400	392459.200
3301	3293	1	0.1400	392459.200
3302	3290	1	0.1400	392459.200
3303	3286	1	0.1340	402500.800
3304	3303	1	0.1400	392459.200
3305	3304	1	0.1400	392459.200
3306	3305	1	0.1400	392459.200
3307	3306	1	0.1433	357313.600
3308	3307	1	0.1345	459403.200
3309	3308	1	0.1345	459403.200
3310	3309	1	0.1345	459403.200
3311	3310	1	0.1345	459403.200
3312	3311	1	0.1345	459403.200
3313	3312	1	0.1345	459403.200
3314	3313	1	0.1345	459403.200
3315	3314	1	0.1433	357313.600
3316	3315	1	0.1340	459403.200
3317	3316	1	0.1426	334720.000
3318	3317	1	0.1157	543920.000
3319	3316	1	0.1365	459403.200
3320	3319	1	0.1367	456892.800
3321	3320	1	0.1426	334720.000
3322	3321	1	0.1157	543920.000
3323	3320	1	0.1426	334720.000
3324	3323	1	0.1157	543920.000
3325	3319	1	0.1360	284512.000
3326	3315	1	0.1510	265265.600
3327	3326	1	0.1510	265265.600
3328	3327	1	0.1400	392459.200
3329	3328	1	0.1400	392459.200
3330	3329	1	0.1400	392459.200
3331	3330	1	0.1400	392459.200
3332	3327	1	0.1400	392459.200
3333	3326	1	0.1529	224262.400
3334	3333	1	0.1360	307105.600
3335	3333	1	0.1360	307105.600
3336	3333	1	0.1360	307105.600
3337	3311	1	0.1510	265265.600
3338	3337	1	0.1529	224262.400
3339	3338	1	0.1529	224262.400
3340	3338	1	0.1529	224262.400
3341	3309	1	0.1510	265265.600
3342	3306	1	0.1400	392459.200
3343	3303	1	0.1400	392459.200
3344	3285	1	0.1090	284512.000
3345	3285	1	0.1090	284512.000
3346	3285	1	0.1090	284512.000
3347	3287	1	0.1090	284512.000
3348	3287	1	0.1090	284512.000
3349	3288	1	0.1090	284512.000
3350	3288	1	0.1090	284512.000
3351	3291	1	0.1080	307105.600
3352	3292	1	0.1080	307105.600
3353	3295	1	0.1080	307105.600
3354	3296	1	0.1080	307105.600
3355	3298	1	0.14	0.0
3356	3299	1	0.1080	307105.600
3357	3300	1	0.1080	307105.600
3358	3301	1	0.1080	307105.600
3359	3302	1	0.1080	307105.600
3360	3304	1	0.1080	307105.600
3361	3305	1	0.1080	307105.600
3362	3307	1	0.1080	284512.000
3363	3308	1	0.1080	284512.000
3364	3310	1	0.1050	345196.736
3365	3312	1	0.1080	284512.000
3366	3313	1	0.1080	284512.000
3367	3314	1	0.1080	284512.000
3368	3328	1	0.1080	307105.600
3369	3329	1	0.1080	307105.600
3370	3330	1	0.1080	307105.600
3371	3331	1	0.1080	307105.600
3372	3332	1	0.1080	307105.600
3373	3337	1	0.1090	284512.000
3374	3337	1	0.1090	284512.000
3375	3339	1	0.1090	284512.000
3376	3339	1	0.1090	284512.000
3377	3339	1	0.1090	284512.000
3378	3340	1	0.1090	284512.000
3379	3340	1	0.1090	284512.000
3380	3340	1	0.1090	284512.000
3381	3341	1	0.1090	284512.000
3382	3341	1	0.1090	284512.000
3383	3342	1	0.1080	307105.600
3384	3343	1	0.1080	307105.600
3300	3299	1	0.1400	392459.200
3302	3301	1	0.1400	392459.200
3326	3325	1	0.1410	267776.000
3332	3331	1	0.1400	392459.200
3341	3338	1	0.1529	224262.400
3343	3342	1	0.1400	392459.200
3386	3385	1	0.1448	319657.600
3387	3386	1	0.1448	319657.600
3388	3387	1	0.1529	224262.400
3389	3388	1	0.1410	267776.000
3390	3389	1	0.1364	376560.000
3391	3390	1	0.1400	392459.200
3392	3391	1	0.1400	392459.200
3393	3392	1	0.1400	392459.200
3394	3393	1	0.1460	322168.000
3395	3394	1	0.1400	392459.200
3396	3395	1	0.1400	392459.200
3397	3396	1	0.1400	392459.200
3398	3397	1	0.14	0.0
3399	3397	1	0.1400	392459.200
3400	3394	1	0.1400	392459.200
3401	3393	1	0.1400	392459.200
3402	3390	1	0.1400	392459.200
3403	3386	1	0.1340	402500.800
3404	3403	1	0.1400	392459.200
3405	3404	1	0.1400	392459.200
3406	3405	1	0.1400	392459.200
3407	3406	1	0.1433	357313.600
3408	3407	1	0.1345	459403.200
3409	3408	1	0.1345	459403.200
3410	3409	1	0.1345	459403.200
3411	3410	1	0.1345	459403.200
3412	3411	1	0.1345	459403.200
3413	3412	1	0.1345	459403.200
3414	3413	1	0.1345	459403.200
3415	3414	1	0.1433	357313.600
3416	3415	1	0.1340	459403.200
3417	3416	1	0.1426	334720.000
3418	3417	1	0.1157	543920.000
3419	3416	1	0.1365	459403.200
3420	3419	1	0.1367	456892.800
3421	3420	1	0.1426	334720.000
3422	3421	1	0.1157	543920.000
3423	3420	1	0.1426	334720.000
3424	3423	1	0.1157	543920.000
3425	3419	1	0.1360	284512.000
3426	3415	1	0.1510	265265.600
3427	3426	1	0.1510	265265.600
3428	3427	1	0.1400	392459.200
3429	3428	1	0.1400	392459.200
3430	3429	1	0.1400	392459.200
3431	3430	1	0.1400	392459.200
3432	3427	1	0.1400	392459.200
3433	3426	1	0.1529	224262.400
3434	3433	1	0.1360	307105.600
3435	3433	1	0.1360	307105.600
3436	3433	1	0.1360	307105.600
3437	3411	1	0.1510	265265.600
3438	3437	1	0.1529	224262.400
3439	3438	1	0.1529	224262.400
3440	3438	1	0.1529	224262.400
3441	3409	1	0.1510	265265.600
3442	3406	1	0.1400	392459.200
3443	3403	1	0.1400	392459.200
3444	3385	1	0.1090	284512.000
3445	3385	1	0.1090	284512.000
3446	3385	1	0.1090	284512.000
3447	3387	1	0.1090	284512.000
3448	3387	1	0.1090	284512.000
3449	3388	1	0.1090	284512.000
3450	3388	1	0.1090	284512.000
3451	3391	1	0.1080	307105.600
3452	3392	1	0.1080	307105.600
3453	3395	1	0.1080	307105.600
3454	3396	1	0.1080	307105.600
3455	3398	1	0.14	0.0
3456	3399	1	0.1080	307105.600
3457	3400	1	0.1080	307105.600
3458	3401	1	0.1080	307105.600
3459	3402	1	0.1080	307105.600
3460	3404	1	0.1080	307105.600
3461	3405	1	0.1080	307105.600
3462	3407	1	0.1080	284512.000
3463	3408	1	0.1080	284512.000
3464	3410	1	0.1050	345196.736
3465	3412	1	0.1080	284512.000
3466	3413	1	0.1080	284512.000
3467	3414	1	0.1080	284512.000
3468	3428	1	0.1080	307105.600
3469	3429	1	0.1080	307105.600
3470	3430	1	0.1080	307105.600
3471	3431	1	0.1080	307105.600
3472	3432	1	0.1080	307105.600
3473	3437	1	0.1090	284512.000
3474	3437	1	0.1090	284512.000
3475	3439	1	0.1090	284512.000
3476	3439	1	0.1090	284512.000
3477	3439	1	0.1090	284512.000
3478	3440	1	0.1090	284512.000
3479	3440	1	0.1090	284512.000
3480	3440	1	0.1090	284512.000
3481	3441	1	0.1090	284512.000
3482	3441	1	0.1090	284512.000
3483	3442	1	0.1080	307105.600
3484	3443	1	0.1080	307105.600
3400	3399	1	0.1400	392459.200
3402	3401	1	0.1400	392459.200
3426	3425	1	0.1410	267776.000
3432	3431	1	0.1400	392459.200
3441	3438	1	0.1529	224262.400
3443	3442	1	0.1400	392459.200
3486	3485	1	0.1448	319657.600
3487	3486	1	0.1448	319657.600
3488	3487	1	0.1529	224262.400
3489	3488	1	0.1410	267776.000
3490	3489	1	0.1364	376560.000
3491	3490	1	0.1400	392459.200
3492	3491	1	0.1400	392459.200
3493	3492	1	0.1400	392459.200
3494	3493	1	0.1460	322168.000
3495	3494	1	0.1400	392459.200
3496	3495	1	0.1400	392459.200
3497	3496	1	0.1400	392459.200
3498	3497	1	0.14	0.0
3499	3497	1	0.1400	392459.200
3500	3494	1	0.1400	392459.200
3501	3493	1	0.1400	392459.200
3502	3490	1	0.1400	392459.200
3503	3486	1	0.1340	402500.800
3504	3503	1	0.1400	392459.200
3505	3504	1	0.1400	392459.200
3506	3505	1	0.1400	392459.200
3507	3506	1	0.1433	357313.600
3508	3507	1	0.1345	459403.200
3509	3508	1	0.1345	459403.200
3510	3509	1	0.1345	459403.200
3511	3510	1	0.1345	459403.200
3512	3511	1	0.1345	459403.200
3513	3512	1	0.1345	459403.200
3514	3513	1	0.1345	459403.200
3515	3514	1	0.1433	357313.600
3516	3515	1	0.1340	459403.200
3517	3516	1	0.1426	334720.000
3518	3517	1	0.1157	543920.000
3519	3516	1	0.1365	459403.200
3520	3519	1	0.1367	456892.800
3521	3520	1	0.1426	334720.000
3522	3521	1	0.1157	543920.000
3523	3520	1	0.1426	334720.000
3524	3523	1	0.1157	543920.000
3525	3519	1	0.1360	284512.000
3526	3515	1	0.1510	265265.600
3527	3526	1	0.1510	265265.600
3528	3527	1	0.1400	392459.200
3529	3528	1	0.1400	392459.200
3530	3529	1	0.1400	392459.200
3531	3530	1	0.1400	392459.200
3532	3527	1	0.1400	392459.200
3533	3526	1	0.1529	224262.400
3534	3533	1	0.1360	307105.600
3535	3533	1	0.1360	307105.600
3536	3533	1	0.1360	307105.600
3537	3511	1	0.1510	265265.600
3538	3537	1	0.1529	224262.400
3539	3538	1	0.1529	224262.400
3540	3538	1	0.1529	224262.400
3541	3509	1	0.1510	265265.600
3542	3506	1	0.1400	392459.200
3543	3503	1	0.1400	392459.200
3544	3485	1	0.1090	284512.000
3545	3485	1	0.1090	284512.000
3546	3485	1	0.1090	284512.000
3547	3487	1	0.1090	284512.000
3548	3487	1	0.1090	284512.000
3549	3488	1	0.1090	284512.000
3550	3488	1	0.1090	284512.000
3551	3491	1	0.1080	307105.600
3552	3492	1	0.1080	307105.600
3553	3495	1	0.1080	307105.600
3554	3496	1	0.1080	307105.600
3555	3498	1	0.14	0.0
3556	3499	1	0.1080	307105.600
3557	3500	1	0.1080	307105.600
3558	3501	1	0.1080	307105.600
3559	3502	1	0.1080	307105.600
3560	3504	1	0.1080	307105.600
3561	3505	1	0.1080	307105.600
3562	3507	1	0.1080	284512.000
3563	3508	1	0.1080	284512.000
3564	3510	1	0.1050	345196.736
3565	3512	1	0.1080	284512.000
3566	3513	1	0.1080	284512.000
3567	3514	1	0.1080	284512.000
3568	3528	1	0.1080	307105.600
3569	3529	1	0.1080	307105.600
3570	3530	1	0.1080	307105.600
3571	3531	1	0.1080	307105.600
3572	3532	1	0.1080	307105.600
3573	3537	1	0.1090	284512.000
3574	3537	1	0.1090	284512.000
3575	3539	1	0.1090	284512.000
3576	3539	1	0.1090	284512.000
3577	3539	1	0.1090	284512.000
3578	3540	1	0.1090	284512.000
3579	3540	1	0.1090	284512.000
3580	3540	1	0.1090	284512.000
3581	3541	1	0.1090	284512.000
3582	3541	1	0.1090	284512.000
3583	3542	1	0.1080	307105.600
3584	3543	1	0.1080	307105.600
3500	3499	1	0.1400	392459.200
3502	3501	1	0.1400	392459.200
3526	3525	1	0.1410	267776.000
3532	3531	1	0.1400	392459.200
3541	3538	1	0.1529	224262.400
3543	3542	1	0.1400	392459.200
3586	3585	1	0.1448	319657.600
3587	3586	1	0.1448	319657.600
3588	3587	1	0.1529	224262.400
3589	3588	1	0.1410	267776.000
3590	3589	1	0.1364	376560.000
3591	3590	1	0.1400	392459.200
3592	3591	1	0.1400	392459.200
3593	3592	1	0.1400	392459.200
3594	3593	1	0.1460	322168.000
3595	3594	1	0.1400	392459.200
3596	3595	1	0.1400	392459.200
3597	3596	1	0.1400	392459.200
3598	3597	1	0.14	0.0
3599	3597	1	0.1400	392459.200
3600	3594	1	0.1400	392459.200
3601	3593	1	0.1400	392459.200
3602	3590	1	0.1400	392459.200
3603	3586	1	0.1340	402500.800
3604	3603	1	0.1400	392459.200
3605	3604	1	0.1400	392459.200
3606	3605	1	0.1400	392459.200
3607	3606	1	0.1433	357313.600
3608	3607	1	0.1345	459403.200
3609	3608	1	0.1345	459403.200
3610	3609	1	0.1345	459403.200
3611	3610	1	0.1345	459403.200
3612	3611	1	0.1345	459403.200
3613	3612	1	0.1345	459403.200
3614	3613	1	0.1345	459403.200
3615	3614	1	0.1433	357313.600
3616	3615	1	0.1340	459403.200
3617	3616	1	0.1426	334720.000
3618	3617	1	0.1157	543920.000
3619	3616	1	0.1365	459403.200
3620	3619	1	0.1367	456892.800
3621	3620	1	0.1426	334720.000
3622	3621	1	0.1157	543920.000
3623	3620	1	0.1426	334720.000
3624	3623	1	0.1157	543920.000
3625	3619	1	0.1360	284512.000
3626	3615	1	0.1510	265265.600
3627	3626	1	0.1510	265265.600
3628	3627	1	0.1400	392459.200
3629	3628	1	0.1400	392459.200
3630	3629	1	0.1400	392459.200
3631	3630	1	0.1400	392459.200
3632	3627	1	0.1400	392459.200
3633	3626	1	0.1529	224262.400
3634	3633	1	0.1360	307105.600
3635	3633	1	0.1360	307105.600
3636	3633	1	0.1360	307105.600
3637	3611	1	0.1510	265265.600
3638	3637	1	0.1529	224262.400
3639	3638	1	0.1529	224262.400
3640	3638	1	0.1529	224262.400
3641	3609	1	0.1510	265265.600
3642	3606	1	0.1400	392459.200
3643	3603	1	0.1400	392459.200
3644	3585	1	0.1090	284512.000
3645	3585	1	0.1090	284512.000
3646	3585	1	0.1090	284512.000
3647	3587	1	0.1090	284512.000
3648	3587	1	0.1090	284512.000
3649	3588	1	0.1090	284512.000
3650	3588	1	0.1090	284512.000
3651	3591	1	0.1080	307105.600
3652	3592	1	0.1080	307105.600
3653	3595	1	0.1080	307105.600
3654	3596	1	0.1080	307105.600
3655	3598	1	0.14	0.0
3656	3599	1	0.1080	307105.600
3657	3600	1	0.1080	307105.600
3658	3601	1	0.1080	307105.600
3659	3602	1	0.1080	307105.600
3660	3604	1	0.1080	307105.600
3661	3605	1	0.1080	307105.600
3662	3607	1	0.1080	284512.000
3663	3608	1	0.1080	284512.000
3664	3610	1	0.1050	345196.736
3665	3612	1	0.1080	284512.000
3666	3613	1	0.1080	284512.000
3667	3614	1	0.1080	284512.000
3668	3628	1	0.1080	307105.600
3669	3629	1	0.1080	307105.600
3670	3630	1	0.1080	307105.600
3671	3631	1	0.1080	307105.600
3672	3632	1	0.1080	307105.600
3673	3637	1	0.1090	284512.000
3674	3637	1	0.1090	284512.000
3675	3639	1	0.1090	284512.000
3676	3639	1	0.1090	284512.000
3677	3639	1	0.1090	284512.000
3678	3640	1	0.1090	284512.000
3679	3640	1	0.1090	284512.000
3680	3640	1	0.1090	284512.000
3681	3641	1	0.1090	284512.000
3682	3641	1	0.1090	284512.000
3683	3642	1	0.1080	307105.600
3684	3643	1	0.1080	307105.600
3600	3599	1	0.1400	392459.200
3602	3601	1	0.1400	392459.200
3626	3625	1	0.1410	267776.000
3632	3631	1	0.1400	392459.200
3641	3638	1	0.1529	224262.400
3643	3642	1	0.1400	392459.200
3686	3685	1	0.1448	319657.600
3687	3686	1	0.1448	319657.600
3688	3687	1	0.1529	224262.400
3689	3688	1	0.1410	267776.000
3690	3689	1	0.1364	376560.000
3691	3690	1	0.1400	392459.200
3692	3691	1	0.1400	392459.200
3693	3692	1	0.1400	392459.200
3694	3693	1	0.1460	322168.000
3695	3694	1	0.1400	392459.200
3696	3695	1	0.1400	392459.200
3697	3696	1	0.1400	392459.200
3698	3697	1	0.14	0.0
3699	3697	1	0.1400	392459.200
3700	3694	1	0.1400	392459.200
3701	3693	1	0.1400	392459.200
3702	3690	1	0.1400	392459.200
3703	3686	1	0.1340	402500.800
3704	3703	1	0.1400	392459.200
3705	3704	1	0.1400	392459.200
3706	3705	1	0.1400	392459.200
3707	3706	1	0.1433	357313.600
3708	3707	1	0.1345	459403.200
3709	3708	1	0.1345	459403.200
3710	3709	1	0.1345	459403.200
3711	3710	1	0.1345	459403.200
3712	3711	1	0.1345	459403.200
3713	3712	1	0.1345	459403.200
3714	3713	1	0.1345	459403.200
3715	3714	1	0.1433	357313.600
3716	3715	1	0.1340	459403.200
3717	3716	1	0.1426	334720.000
3718	3717	1	0.1157	543920.000
3719	3716	1	0.1365	459403.200
3720	3719	1	0.1367	456892.800
3721	3720	1	0.1426	334720.000
3722	3721	1	0.1157	543920.000
3723	3720	1	0.1426	334720.000
3724	3723	1	0.1157	543920.000
3725	3719	1	0.1360	284512.000
3726	3715	1	0.1510	265265.600
3727	3726	1	0.1510	265265.600
3728	3727	1	0.1400	392459.200
3729	3728	1	0.1400	392459.200
3730	3729	1	0.1400	392459.200
3731	3730	1	0.1400	392459.200
3732	3727	1	0.1400	392459.200
3733	3726	1	0.1529	224262.400
3734	3733	1	0.1360	307105.600
3735	3733	1	0.1360	307105.600
3736	3733	1	0.1360	307105.600
3737	3711	1	0.1510	265265.600
3738	3737	1	0.1529	224262.400
3739	3738	1	0.1529	224262.400
3740	3738	1	0.1529	224262.400
3741	3709	1	0.1510	265265.600
3742	3706	1	0.1400	392459.200
3743	3703	1	0.1400	392459.200
3744	3685	1	0.1090	284512.000
3745	3685	1	0.1090	284512.000
3746	3685	1	0.1090	284512.000
3747	3687	1	0.1090	284512.000
3748	3687	1	0.1090	284512.000
3749	3688	1	0.1090	284512.000
3750	3688	1	0.1090	284512.000
3751	3691	1	0.1080	307105.600
3752	3692	1	0.1080	307105.600
3753	3695	1	0.1080	307105.600
3754	3696	1	0.1080	307105.600
3755	3698	1	0.14	0.0
3756	3699	1	0.1080	307105.600
3757	3700	1	0.1080	307105.600
3758	3701	1	0.1080	307105.600
3759	3702	1	0.1080	307105.600
3760	3704	1	0.1080	307105.600
3761	3705	1	0.1080	307105.600
3762	3707	1	0.1080	284512.000
3763	3708	1	0.1080	284512.000
3764	3710	1	0.1050	345196.736
3765	3712	1	0.1080	284512.000
3766	3713	1	0.1080	284512.000
3767	3714	1	0.1080	284512.000
3768	3728	1	0.1080	307105.600
3769	3729	1	0.1080	307105.600
3770	3730	1	0.1080	307105.600
3771	3731	1	0.1080	307105.600
3772	3732	1	0.1080	307105.600
3773	3737	1	0.1090	284512.000
3774	3737	1	0.1090	284512.000
3775	3739	1	0.1090	284512.000
3776	3739	1	0.1090	284512.000
3777	3739	1	0.1090	284512.000
3778	3740	1	0.1090	284512.000
3779	3740	1	0.1090	284512.000
3780	3740	1	0.1090	284512.000
3781	3741	1	0.1090	284512.000
3782	3741	1	0.1090	284512.000
3783	3742	1	0.1080	307105.600
3784	3743	1	0.1080	307105.600
3700	3699	1	0.1400	392459.200
3702	3701	1	0.1400	392459.200
3726	3725	1	0.1410	267776.000
3732	3731	1	0.1400	392459.200
3741	3738	1	0.1529	224262.400
3743	3742	1	0.1400	392459.200
3786	3785	1	0.1448	319657.600
3787	3786	1	0.1448	319657.600
3788	3787	1	0.1529	224262.400
3789	3788	1	0.1410	267776.000
3790	3789	1	0.1364	376560.000
3791	3790	1	0.1400	392459.200
3792	3791	1	0.1400	392459.200
3793	3792	1	0.1400	392459.200
3794	3793	1	0.1460	322168.000
3795	3794	1	0.1400	392459.200
3796	3795	1	0.1400	392459.200
3797	3796	1	0.1400	392459.200
3798	3797	1	0.14	0.0
3799	3797	1	0.1400	392459.200
3800	3794	1	0.1400	392459.200
3801	3793	1	0.1400	392459.200
3802	3790	1	0.1400	392459.200
3803	3786	1	0.1340	402500.800
3804	3803	1	0.1400	392459.200
3805	3804	1	0.1400	392459.200
3806	3805	1	0.1400	392459.200
3807	3806	1	0.1433	357313.600
3808	3807	1	0.1345	459403.200
3809	3808	1	0.1345	459403.200
3810	3809	1	0.1345	459403.200
3811	3810	1	0.1345	459403.200
3812	3811	1	0.1345	459403.200
3813	3812	1	0.1345	459403.200
3814	3813	1	0.1345	459403.200
3815	3814	1	0.1433	357313.600
3816	3815	1	0.1340	459403.200
3817	3816	1	0.1426	334720.000
3818	3817	1	0.1157	543920.000
3819	3816	1	0.1365	459403.200
3820	3819	1	0.1367	456892.800
3821	3820	1	0.1426	334720.000
3822	3821	1	0.1157	543920.000
3823	3820	1	0.1426	334720.000
3824	3823	1	0.1157	543920.000
3825	3819	1	0.1360	284512.000
3826	3815	1	0.1510	265265.600
3827	3826	1	0.1510	265265.600
3828	3827	1	0.1400	392459.200
3829	3828	1	0.1400	392459.200
3830	3829	1	0.1400	392459.200
3831	3830	1	0.1400	392459.200
3832	3827	1	0.1400	392459.200
3833	3826	1	0.1529	224262.400
3834	3833	1	0.1360	307105.600
3835	3833	1	0.1360	307105.600
3836	3833	1	0.1360	307105.600
3837	3811	1	0.1510	265265.600
3838	3837	1	0.1529	224262.400
3839	3838	1	0.1529	224262.400
3840	3838	1	0.1529	224262.400
3841	3809	1	0.1510	265265.600
3842	3806	1	0.1400	392459.200
3843	3803	1	0.1400	392459.200
3844	3785	1	0.1090	284512.000
3845	3785	1	0.1090	284512.000
3846	3785	1	0.1090	284512.000
3847	3787	1	0.1090	284512.000
3848	3787	1	0.1090	284512.000
3849	3788	1	0.1090	284512.000
3850	3788	1	0.1090	284512.000
3851	3791	1	0.1080	307105.600
3852	3792	1	0.1080	307105.600
3853	3795	1	0.1080	307105.600
3854	3796	1	0.1080	307105.600
3855	3798	1	0.14	0.0
3856	3799	1	0.1080	307105.600
3857	3800	1	0.1080	307105.600
3858	3801	1	0.1080	307105.600
3859	3802	1	0.1080	307105.600
3860	3804	1	0.1080	307105.600
3861	3805	1	0.1080	307105.600
3862	3807	1	0.1080	284512.000
3863	3808	1	0.1080	284512.000
3864	3810	1	0.1050	345196.736
3865	3812	1	0.1080	284512.000
3866	3813	1	0.1080	284512.000
3867	3814	1	0.1080	284512.000
3868	3828	1	0.1080	307105.600
3869	3829	1	0.1080	307105.600
3870	3830	1	0.1080	307105.600
3871	3831	1	0.1080	307105.600
3872	3832	1	0.1080	307105.600
3873	3837	1	0.1090	284512.000
3874	3837	1	0.1090	284512.000
3875	3839	1	0.1090	284512.000
3876	3839	1	0.1090	284512.000
3877	3839	1	0.1090	284512.000
3878	3840	1	0.1090	284512.000
3879	3840	1	0.1090	284512.000
3880	3840	1	0.1090	284512.000
3881	3841	1	0.1090	284512.000
3882	3841	1	0.1090	284512.000
3883	3842	1	0.1080	307105.600
3884	3843	1	0.1080	307105.600
3800	3799	1	0.1400	392459.200
3802	3801	1	0.1400	392459.200
3826	3825	1	0.1410	267776.000
3832	3831	1	0.1400	392459.200
3841	3838	1	0.1529	224262.400
3843	3842	1	0.1400	392459.200
3886	3885	1	0.1448	319657.600
3887	3886	1	0.1448	319657.600
3888	3887	1	0.1529	224262.400
3889	3888	1	0.1410	267776.000
3890	3889	1	0.1364	376560.000
3891	3890	1	0.1400	392459.200
3892	3891	1	0.1400	392459.200
3893	3892	1	0.1400	392459.200
3894	3893	1	0.1460	322168.000
3895	3894	1	0.1400	392459.200
3896	3895	1	0.1400	392459.200
3897	3896	1	0.1400	392459.200
3898	3897	1	0.14	0.0
3899	3897	1	0.1400	392459.200
3900	3894	1	0.1400	392459.200
3901	3893	1	0.1400	392459.200
3902	3890	1	0.1400	392459.200
3903	3886	1	0.1340	402500.800
3904	3903	1	0.1400	392459.200
3905	3904	1	0.1400	392459.200
3906	3905	1	0.1400	392459.200
3907	3906	1	0.1433	357313.600
3908	3907	1	0.1345	459403.200
3909	3908	1	0.1345	459403.200
3910	3909	1	0.1345	459403.200
3911	3910	1	0.1345	459403.200
3912	3911	1	0.1345	459403.200
3913	3912	1	0.1345	459403.200
3914	3913	1	0.1345	459403.200
3915	3914	1	0.1433	357313.600
3916	3915	1	0.1340	459403.200
3917	3916	1	0.1426	334720.000
3918	3917	1	0.1157	543920.000
3919	3916	1	0.1365	459403.200
3920	3919	1	0.1367	456892.800
3921	3920	1	0.1426	334720.000
3922	3921	1	0.1157	543920.000
3923	3920	1	0.1426	334720.000
3924	3923	1	0.1157	543920.000
3925	3919	1	0.1360	284512.000
3926	3915	1	0.1510	265265.600
3927	3926	1	0.1510	265265.600
3928	3927	1	0.1400	392459.200
3929	3928	1	0.1400	392459.200
3930	3929	1	0.1400	392459.200
3931	3930	1	0.1400	392459.200
3932	3927	1	0.1400	392459.200
3933	3926	1	0.1529	224262.400
3934	3933	1	0.1360	307105.600
3935	3933	1	0.1360	307105.600
3936	3933	1	0.1360	307105.600
3937	3911	1	0.1510	265265.600
3938	3937	1	0.1529	224262.400
3939	3938	1	0.1529	224262.400
3940	3938	1	0.1529	224262.400
3941	3909	1	0.1510	265265.600
3942	3906	1	0.1400	392459.200
3943	3903	1	0.1400	392459.200
3944	3885	1	0.1090	284512.000
3945	3885	1	0.1090	284512.000
3946	3885	1	0.1090	284512.000
3947	3887	1	0.1090	284512.000
3948	3887	1	0.1090	284512.000
3949	3888	1	0.1090	284512.000
3950	3888	1	0.1090	284512.000
3951	3891	1	0.1080	307105.600
3952	3892	1	0.1080	307105.600
3953	3895	1	0.1080	307105.600
3954	3896	1	0.1080	307105.600
3955	3898	1	0.14	0.0
3956	3899	1	0.1080	307105.600
3957	3900	1	0.1080	307105.600
3958	3901	1	0.1080	307105.600
3959	3902	1	0.1080	307105.600
3960	3904	1	0.1080	307105.600
3961	3905	1	0.1080	307105.600
3962	3907	1	0.1080	284512.000
3963	3908	1	0.1080	284512.000
3964	3910	1	0.1050	345196.736
3965	3912	1	0.1080	284512.000
3966	3913	1	0.1080	284512.000
3967	3914	1	0.1080	284512.000
3968	3928	1	0.1080	307105.600
3969	3929	1	0.1080	307105.600
3970	3930	1	0.1080	307105.600
3971	3931	1	0.1080	307105.600
3972	3932	1	0.1080	307105.600
3973	3937	1	0.1090	284512.000
3974	3937	1	0.1090	284512.000
3975	3939	1	0.1090	284512.000
3976	3939	1	0.1090	284512.000
3977	3939	1	0.1090	284512.000
3978	3940	1	0.1090	284512.000
3979	3940	1	0.1090	284512.000
3980	3940	1	0.1090	284512.000
3981	3941	1	0.1090	284512.000
3982	3941	1	0.1090	284512.000
3983	3942	1	0.1080	307105.600
3984	3943	1	0.1080	307105.600
3900	3899	1	0.1400	392459.200
3902	3901	1	0.1400	392459.200
3926	3925	1	0.1410	267776.000
3932	3931	1	0.1400	392459.200
3941	3938	1	0.1529	224262.400
3943	3942	1	0.1400	392459.200
3986	3985	1	0.1448	319657.600
3987	3986	1	0.1448	319657.600
3988	3987	1	0.1529	224262.400
3989	3988	1	0.1410	267776.000
3990	3989	1	0.1364	376560.000
3991	3990	1	0.1400	392459.200
3992	3991	1	0.1400	392459.200
3993	3992	1	0.1400	392459.200
3994	3993	1	0.1460	322168.000
3995	3994	1	0.1400	392459.200
3996	3995	1	0.1400	392459.200
3997	3996	1	0.1400	392459.200
3998	3997	1	0.14	0.0
3999	3997	1	0.1400	392459.200
4000	3994	1	0.1400	392459.200
4001	3993	1	0.1400	392459.200
4002	3990	1	0.1400	392459.200
4003	3986	1	0.1340	402500.800
4004	4003	1	0.1400	392459.200
4005	4004	1	0.1400	392459.200
4006	4005	1	0.1400	392459.200
4007	4006	1	0.1433	357313.600
4008	4007	1	0.1345	459403.200
4009	4008	1	0.1345	459403.200
4010	4009	1	0.1345	459403.200
4011	4010	1	0.1345	459403.200
4012	4011	1	0.1345	459403.200
4013	4012	1	0.1345	459403.200
4014	4013	1	0.1345	459403.200
4015	4014	1	0.1433	357313.600
4016	4015	1	0.1340	459403.200
4017	4016	1	0.1426	334720.000
4018	4017	1	0.1157	543920.000
4019	4016	1	0.1365	459403.200
4020	4019	1	0.1367	456892.800
4021	4020	1	0.1426	334720.000
4022	4021	1	0.1157	543920.000
4023	4020	1	0.1426	334720.000
4024	4023	1	0.1157	543920.000
4025	4019	1	0.1360	284512.000
4026	4015	1	0.1510	265265.600
4027	4026	1	0.1510	265265.600
4028	4027	1	0.1400	392459.200
4029	4028	1	0.1400	392459.200
4030	4029	1	0.1400	392459.200
4031	4030	1	0.1400	392459.200
4032	4027	1	0.1400	392459.200
4033	4026	1	0.1529	224262.400
4034	4033	1	0.1360	307105.600
4035	4033	1	0.1360	307105.600
4036	4033	1	0.1360	307105.600
4037	4011	1	0.1510	265265.600
4038	4037	1	0.1529	224262.400
4039	4038	1	0.1529	224262.400
4040	4038	1	0.1529	224262.400
4041	4009	1	0.1510	265265.600
4042	4006	1	0.1400	392459.200
4043	4003	1	0.1400	392459.200
4044	3985	1	0.1090	284512.000
4045	3985	1	0.1090	284512.000
4046	3985	1	0.1090	284512.000
4047	3987	1	0.1090	284512.000
4048	3987	1	0.1090	284512.000
4049	3988	1	0.1090	284512.000
4050	3988	1	0.1090	284512.000
4051	3991	1	0.1080	307105.600
4052	3992	1	0.1080	307105.600
4053	3995	1	0.1080	307105.600
4054	3996	1	0.1080	307105.600
4055	3998	1	0.14	0.0
4056	3999	1	0.1080	307105.600
4057	4000	1	0.1080	307105.600
4058	4001	1	0.1080	307105.600
4059	4002	1	0.1080	307105.600
4060	4004	1	0.1080	307105.600
4061	4005	1	0.1080	307105.600
4062	4007	1	0.1080	284512.000
4063	4008	1	0.1080	284512.000
4064	4010	1	0.1050	345196.736
4065	4012	1	0.1080	284512.000
4066	4013	1	0.1080	284512.000
4067	4014	1	0.1080	284512.000
4068	4028	1	0.1080	307105.600
4069	4029	1	0.1080	307105.600
4070	4030	1	0.1080	307105.600
4071	4031	1	0.1080	307105.600
4072	4032	1	0.1080	307105.600
4073	4037	1	0.1090	284512.000
4074	4037	1	0.1090	284512.000
4075	4039	1	0.1090	284512.000
4076	4039	1	0.1090	284512.000
4077	4039	1	0.1090	284512.000
4078	4040	1	0.1090	284512.000
4079	4040	1	0.1090	284512.000
4080	4040	1	0.1090	284512.000
4081	4041	1	0.1090	284512.000
4082	4041	1	0.1090	284512.000
4083	4042	1	0.1080	307105.600
4084	4043	1	0.1080	307105.600
4000	3999	1	0.1400	392459.200
4002	4001	1	0.1400	392459.200
4026	4025	1	0.1410	267776.000
4032	4031	1	0.1400	392459.200
4041	4038	1	0.1529	224262.400
4043	4042	1	0.1400	392459.200
4086	4085	1	0.1448	319657.600
4087	4086	1	0.1448	319657.600
4088	4087	1	0.1529	224262.400
4089	4088	1	0.1410	267776.000
4090	4089	1	0.1364	376560.000
4091	4090	1	0.1400	392459.200
4092	4091	1	0.1400	392459.200
4093	4092	1	0.1400	392459.200
4094	4093	1	0.1460	322168.000
4095	4094	1	0.1400	392459.200
4096	4095	1	0.1400	392459.200
4097	4096	1	0.1400	392459.200
4098	4097	1	0.14	0.0
4099	4097	1	0.1400	392459.200
4100	4094	1	0.1400	392459.200
4101	4093	1	0.1400	392459.200
4102	4090	1	0.1400	392459.200
4103	4086	1	0.1340	402500.800
4104	4103	1	0.1400	392459.200
4105	4104	1	0.1400	392459.200
4106	4105	1	0.1400	392459.200
4107	4106	1	0.1433	357313.600
4108	4107	1	0.1345	459403.200
4109	4108	1	0.1345	459403.200
4110	4109	1	0.1345	459403.200
4111	4110	1	0.1345	459403.200
4112	4111	1	0.1345	459403.200
4113	4112	1	0.1345	459403.200
4114	4113	1	0.1345	459403.200
4115	4114	1	0.1433	357313.600
4116	4115	1	0.1340	459403.200
4117	4116	1	0.1426	334720.000
4118	4117	1	0.1157	543920.000
4119	4116	1	0.1365	459403.200
4120	4119	1	0.1367	456892.800
4121	4120	1	0.1426	334720.000
4122	4121	1	0.1157	543920.000
4123	4120	1	0.1426	334720.000
4124	4123	1	0.1157	543920.000
4125	4119	1	0.1360	284512.000
4126	4115	1	0.1510	265265.600
4127	4126	1	0.1510	265265.600
4128	4127	1	0.1400	392459.200
4129	4128	1	0.1400	392459.200
4130	4129	1	0.1400	392459.200
4131	4130	1	0.1400	392459.200
4132	4127	1	0.1400	392459.200
4133	4126	1	0.1529	224262.400
4134	4133	1	0.1360	307105.600
4135	4133	1	0.1360	307105.600
4136	4133	1	0.1360	307105.600
4137	4111	1	0.1510	265265.600
4138	4137	1	0.1529	224262.400
4139	4138	1	0.1529	224262.400
4140	4138	1	0.1529	224262.400
4141	4109	1	0.1510	265265.600
4142	4106	1	0.1400	392459.200
4143	4103	1	0.1400	392459.200
4144	4085	1	0.1090	284512.000
4145	4085	1	0.1090	284512.000
4146	4085	1	0.1090	284512.000
4147	4087	1	0.1090	284512.000
4148	4087	1	0.1090	284512.000
4149	4088	1	0.1090	284512.000
4150	4088	1	0.1090	284512.000
4151	4091	1	0.1080	307105.600
4152	4092	1	0.1080	307105.600
4153	4095	1	0.1080	307105.600
4154	4096	1	0.1080	307105.600
4155	4098	1	0.14	0.0
4156	4099	1	0.1080	307105.600
4157	4100	1	0.1080	307105.600
4158	4101	1	0.1080	307105.600
4159	4102	1	0.1080	307105.600
4160	4104	1	0.1080	307105.600
4161	4105	1	0.1080	307105.600
4162	4107	1	0.1080	284512.000
4163	4108	1	0.1080	284512.000
4164	4110	1	0.1050	345196.736
4165	4112	1	0.1080	284512.000
4166	4113	1	0.1080	284512.000
4167	4114	1	0.1080	284512.000
4168	4128	1	0.1080	307105.600
4169	4129	1	0.1080	307105.600
4170	4130	1	0.1080	307105.600
4171	4131	1	0.1080	307105.600
4172	4132	1	0.1080	307105.600
4173	4137	1	0.1090	284512.000
4174	4137	1	0.1090	284512.000
4175	4139	1	0.1090	284512.000
4176	4139	1	0.1090	284512.000
4177	4139	1	0.1090	284512.000
4178	4140	1	0.1090	284512.000
4179	4140	1	0.1090	284512.000
4180	4140	1	0.1090	284512.000
4181	4141	1	0.1090	284512.000
4182	4141	1	0.1090	284512.000
4183	4142	1	0.1080	307105.600
4184	4143	1	0.1080	307105.600
4100	4099	1	0.1400	392459.200
4102	4101	1	0.1400	392459.200
4126	4125	1	0.1410	267776.000
4132	4131	1	0.1400	392459.200
4141	4138	1	0.1529	224262.400
4143	4142	1	0.1400	392459.200
4186	4185	1	0.1448	319657.600
4187	4186	1	0.1448	319657.600
4188	4187	1	0.1529	224262.400
4189	4188	1	0.1410	267776.000
4190	4189	1	0.1364	376560.000
4191	4190	1	0.1400	392459.200
4192	4191	1	0.1400	392459.200
4193	4192	1	0.1400	392459.200
4194	4193	1	0.1460	322168.000
4195	4194	1	0.1400	392459.200
4196	4195	1	0.1400	392459.200
4197	4196	1	0.1400	392459.200
4198	4197	1	0.14	0.0
4199	4197	1	0.1400	392459.200
4200	4194	1	0.1400	392459.200
4201	4193	1	0.1400	392459.200
4202	4190	1	0.1400	392459.200
4203	4186	1	0.1340	402500.800
4204	4203	1	0.1400	392459.200
4205	4204	1	0.1400	392459.200
4206	4205	1	0.1400	392459.200
4207	4206	1	0.1433	357313.600
4208	4207	1	0.1345	459403.200
4209	4208	1	0.1345	459403.200
4210	4209	1	0.1345	459403.200
4211	4210	1	0.1345	459403.200
4212	4211	1	0.1345	459403.200
4213	4212	1	0.1345	459403.200
4214	4213	1	0.1345	459403.200
4215	4214	1	0.1433	357313.600
4216	4215	1	0.1340	459403.200
4217	4216	1	0.1426	334720.000
4218	4217	1	0.1157	543920.000
4219	4216	1	0.1365	459403.200
4220	4219	1	0.1367	456892.800
4221	4220	1	0.1426	334720.000
4222	4221	1	0.1157	543920.000
4223	4220	1	0.1426	334720.000
4224	4223	1	0.1157	543920.000
4225	4219	1	0.1360	284512.000
4226	4215	1	0.1510	265265.600
4227	4226	1	0.1510	265265.600
4228	4227	1	0.1400	392459.200
4229	4228	1	0.1400	392459.200
4230	4229	1	0.1400	392459.200
4231	4230	1	0.1400	392459.200
4232	4227	1	0.1400	392459.200
4233	4226	1	0.1529	224262.400
4234	4233	1	0.1360	307105.600
4235	4233	1	0.1360	307105.600
4236	4233	1	0.1360	307105.600
4237	4211	1	0.1510	265265.600
4238	4237	1	0.1529	224262.400
4239	4238	1	0.1529	224262.400
4240	4238	1	0.1529	224262.400
4241	4209	1	0.1510	265265.600
4242	4206	1	0.1400	392459.200
4243	4203	1	0.1400	392459.200
4244	4185	1	0.1090	284512.000
4245	4185	1	0.1090	284512.000
4246	4185	1	0.1090	284512.000
4247	4187	1	0.1090	284512.000
4248	4187	1	0.1090	284512.000
4249	4188	1	0.1090	284512.000
4250	4188	1	0.1090	284512.000
4251	4191	1	0.1080	307105.600
4252	4192	1	0.1080	307105.600
4253	4195	1	0.1080	307105.600
4254	4196	1	0.1080	307105.600
4255	4198	1	0.14	0.0
4256	4199	1	0.1080	307105.600
4257	4200	1	0.1080	307105.600
4258	4201	1	0.1080	307105.600
4259	4202	1	0.1080	307105.600
4260	4204	1	0.1080	307105.600
4261	4205	1	0.1080	307105.600
4262	4207	1	0.1080	284512.000
4263	4208	1	0.1080	284512.000
4264	4210	1	0.1050	345196.736
4265	4212	1	0.1080	284512.000
4266	4213	1	0.1080	284512.000
4267	4214	1	0.1080	284512.000
4268	4228	1	0.1080	307105.600
4269	4229	1	0.1080	307105.600
4270	4230	1	0.1080	307105.600
4271	4231	1	0.1080	307105.600
4272	4232	1	0.1080	307105.600
4273	4237	1	0.1090	284512.000
4274	4237	1	0.1090	284512.000
4275	4239	1	0.1090	284512.000
4276	4239	1	0.1090	284512.000
4277	4239	1	0.1090	284512.000
4278	4240	1	0.1090	284512.000
4279	4240	1	0.1090	284512.000
4280	4240	1	0.1090	284512.000
4281	4241	1	0.1090	284512.000
4282	4241	1	0.1090	284512.000
4283	4242	1	0.1080	307105.600
4284	4243	1	0.1080	307105.600
4200	4199	1	0.1400	392459.200
4202	4201	1	0.1400	392459.200
4226	4225	1	0.1410	267776.000
4232	4231	1	0.1400	392459.200
4241	4238	1	0.1529	224262.400
4243	4242	1	0.1400	392459.200
4286	4285	1	0.1448	319657.600
4287	4286	1	0.1448	319657.600
4288	4287	1	0.1529	224262.400
4289	4288	1	0.1410	267776.000
4290	4289	1	0.1364	376560.000
4291	4290	1	0.1400	392459.200
4292	4291	1	0.1400	392459.200
4293	4292	1	0.1400	392459.200
4294	4293	1	0.1460	322168.000
4295	4294	1	0.1400	392459.200
4296	4295	1	0.1400	392459.200
4297	4296	1	0.1400	392459.200
4298	4297	1	0.14	0.0
4299	4297	1	0.1400	392459.200
4300	4294	1	0.1400	392459.200
4301	4293	1	0.1400	392459.200
4302	4290	1	0.1400	392459.200
4303	4286	1	0.1340	402500.800
4304	4303	1	0.1400	392459.200
4305	4304	1	0.1400	392459.200
4306	4305	1	0.1400	392459.200
4307	4306	1	0.1433	357313.600
4308	4307	1	0.1345	459403.200
4309	4308	1	0.1345	459403.200
4310	4309	1	0.1345	459403.200
4311	4310	1	0.1345	459403.200
4312	4311	1	0.1345	459403.200
4313	4312	1	0.1345	459403.200
4314	4313	1	0.1345	459403.200
4315	4314	1	0.1433	357313.600
4316	4315	1	0.1340	459403.200
4317	4316	1	0.1426	334720.000
4318	4317	1	0.1157	543920.000
4319	4316	1	0.1365	459403.200
4320	4319	1	0.1367	456892.800
4321	4320	1	0.1426	334720.000
4322	4321	1	0.1157	543920.000
4323	4320	1	0.1426	334720.000
4324	4323	1	0.1157	543920.000
4325	4319	1	0.1360	284512.000
4326	4315	1	0.1510	265265.600
4327	4326	1	0.1510	265265.600
4328	4327	1	0.1400	392459.200
4329	4328	1	0.1400	392459.200
4330	4329	1	0.1400	392459.200
4331	4330	1	0.1400	392459.200
4332	4327	1	0.1400	392459.200
4333	4326	1	0.1529	224262.400
4334	4333	1	0.1360	307105.600
4335	4333	1	0.1360	307105.600
4336	4333	1	0.1360	307105.600
4337	4311	1	0.1510	265265.600
4338	4337	1	0.1529	224262.400
4339	4338	1	0.1529	224262.400
4340	4338	1	0.1529	224262.400
4341	4309	1	0.1510	265265.600
4342	4306	1	0.1400	392459.200
4343	4303	1	0.1400	392459.200
4344	4285	1	0.1090	284512.000
4345	4285	1	0.1090	284512.000
4346	4285	1	0.1090	284512.000
4347	4287	1	0.1090	284512.000
4348	4287	1	0.1090	284512.000
4349	4288	1	0.1090	284512.000
4350	4288	1	0.1090	284512.000
4351	4291	1	0.1080	307105.600
4352	4292	1	0.1080	307105.600
4353	4295	1	0.1080	307105.600
4354	4296	1	0.1080	307105.600
4355	4298	1	0.14	0.0
4356	4299	1	0.1080	307105.600
4357	4300	1	0.1080	307105.600
4358	4301	1	0.1080	307105.600
4359	4302	1	0.1080	307105.600
4360	4304	1	0.1080	307105.600
4361	4305	1	0.1080	307105.600
4362	4307	1	0.1080	284512.000
4363	4308	1	0.1080	284512.000
4364	4310	1	0.1050	345196.736
4365	4312	1	0.1080	284512.000
4366	4313	1	0.1080	284512.000
4367	4314	1	0.1080	284512.000
4368	4328	1	0.1080	307105.600
4369	4329	1	0.1080	307105.600
4370	4330	1	0.1080	307105.600
4371	4331	1	0.1080	307105.600
4372	4332	1	0.1080	307105.600
4373	4337	1	0.1090	284512.000
4374	4337	1	0.1090	284512.000
4375	4339	1	0.1090	284512.000
4376	4339	1	0.1090	284512.000
4377	4339	1	0.1090	284512.000
4378	4340	1	0.1090	284512.000
4379	4340	1	0.1090	284512.000
4380	4340	1	0.1090	284512.000
4381	4341	1	0.1090	284512.000
4382	4341	1	0.1090	284512.000
4383	4342	1	0.1080	307105.600
4384	4343	1	0.1080	307105.600
4300	4299	1	0.1400	392459.200
4302	4301	1	0.1400	392459.200
4326	4325	1	0.1410	267776.000
4332	4331	1	0.1400	392459.200
4341	4338	1	0.1529	224262.400
4343	4342	1	0.1400	392459.200
4386	4385	1	0.1448	319657.600
4387	4386	1	0.1448	319657.600
4388	4387	1	0.1529	224262.400
4389	4388	1	0.1410	267776.000
4390	4389	1	0.1364	376560.000
4391	4390	1	0.1400	392459.200
4392	4391	1	0.1400	392459.200
4393	4392	1	0.1400	392459.200
4394	4393	1	0.1460	322168.000
4395	4394	1	0.1400	392459.200
4396	4395	1	0.1400	392459.200
4397	4396	1	0.1400	392459.200
4398	4397	1	0.14	0.0
4399	4397	1	0.1400	392459.200
4400	4394	1	0.1400	392459.200
4401	4393	1	0.1400	392459.200
4402	4390	1	0.1400	392459.200
4403	4386	1	0.1340	402500.800
4404	4403	1	0.1400	392459.200
4405	4404	1	0.1400	392459.200
4406	4405	1	0.1400	392459.200
4407	4406	1	0.1433	357313.600
4408	4407	1	0.1345	459403.200
4409	4408	1	0.1345	459403.200
4410	4409	1	0.1345	459403.200
4411	4410	1	0.1345	459403.200
4412	4411	1	0.1345	459403.200
4413	4412	1	0.1345	459403.200
4414	4413	1	0.1345	459403.200
4415	4414	1	0.1433	357313.600
4416	4415	1	0.1340	459403.200
4417	4416	1	0.1426	334720.000
4418	4417	1	0.1157	543920.000
4419	4416	1	0.1365	459403.200
4420	4419	1	0.1367	456892.800
4421	4420	1	0.1426	334720.000
4422	4421	1	0.1157	543920.000
4423	4420	1	0.1426	334720.000
4424	4423	1	0.1157	543920.000
4425	4419	1	0.1360	284512.000
4426	4415	1	0.1510	265265.600
4427	4426	1	0.1510	265265.600
4428	4427	1	0.1400	392459.200
4429	4428	1	0.1400	392459.200
4430	4429	1	0.1400	392459.200
4431	4430	1	0.1400	392459.200
4432	4427	1	0.1400	392459.200
4433	4426	1	0.1529	224262.400
4434	4433	1	0.1360	307105.600
4435	4433	1	0.1360	307105.600
4436	4433	1	0.1360	307105.600
4437	4411	1	0.1510	265265.600
4438	4437	1	0.1529	224262.400
4439	4438	1	0.1529	224262.400
4440	4438	1	0.1529	224262.400
4441	4409	1	0.1510	265265.600
4442	4406	1	0.1400	392459.200
4443	4403	1	0.1400	392459.200
4444	4385	1	0.1090	284512.000
4445	4385	1	0.1090	284512.000
4446	4385	1	0.1090	284512.000
4447	4387	1	0.1090	284512.000
4448	4387	1	0.1090	284512.000
4449	4388	1	0.1090	284512.000
4450	4388	1	0.1090	284512.000
4451	4391	1	0.1080	307105.600
4452	4392	1	0.1080	307105.600
4453	4395	1	0.1080	307105.600
4454	4396	1	0.1080	307105.600
4455	4398	1	0.14	0.0
4456	4399	1	0.1080	307105.600
4457	4400	1	0.1080	307105.600
4458	4401	1	0.1080	307105.600
4459	4402	1	0.1080	307105.600
4460	4404	1	0.1080	307105.600
4461	4405	1	0.1080	307105.600
4462	4407	1	0.1080	284512.000
4463	4408	1	0.1080	284512.000
4464	4410	1	0.1050	345196.736
4465	4412	1	0.1080	284512.000
4466	4413	1	0.1080	284512.000
4467	4414	1	0.1080	284512.000
4468	4428	1	0.1080	307105.600
4469	4429	1	0.1080	307105.600
4470	4430	1	0.1080	307105.600
4471	4431	1	0.1080	307105.600
4472	4432	1	0.1080	307105.600
4473	4437	1	0.1090	284512.000
4474	4437	1	0.1090	284512.000
4475	4439	1	0.1090	284512.000
4476	4439	1	0.1090	284512.000
4477	4439	1	0.1090	284512.000
4478	4440	1	0.1090	284512.000
4479	4440	1	0.1090	284512.000
4480	4440	1	0.1090	284512.000
4481	4441	1	0.1090	284512.000
4482	4441	1	0.1090	284512.000
4483	4442	1	0.1080	307105.600
4484	4443	1	0.1080	307105.600
4400	4399	1	0.1400	392459.200
4402	4401	1	0.1400	392459.200
4426	4425	1	0.1410	267776.000
4432	4431	1	0.1400	392459.200
4441	4438	1	0.1529	224262.400
4443	4442	1	0.1400	392459.200
4486	4485	1	0.1448	319657.600
4487	4486	1	0.1448	319657.600
4488	4487	1	0.1529	224262.400
4489	4488	1	0.1410	267776.000
4490	4489	1	0.1364	376560.000
4491	4490	1	0.1400	392459.200
4492	4491	1	0.1400	392459.200
4493	4492	1	0.1400	392459.200
4494	4493	1	0.1460	322168.000
4495	4494	1	0.1400	392459.200
4496	4495	1	0.1400	392459.200
4497	4496	1	0.1400	392459.200
4498	4497	1	0.14	0.0
4499	4497	1	0.1400	392459.200
4500	4494	1	0.1400	392459.200
4501	4493	1	0.1400	392459.200
4502	4490	1	0.1400	392459.200
4503	4486	1	0.1340	402500.800
4504	4503	1	0.1400	392459.200
4505	4504	1	0.1400	392459.200
4506	4505	1	0.1400	392459.200
4507	4506	1	0.1433	357313.600
4508	4507	1	0.1345	459403.200
4509	4508	1	0.1345	459403.200
4510	4509	1	0.1345	459403.200
4511	4510	1	0.1345	459403.200
4512	4511	1	0.1345	459403.200
4513	4512	1	0.1345	459403.200
4514	4513	1	0.1345	459403.200
4515	4514	1	0.1433	357313.600
4516	4515	1	0.1340	459403.200
4517	4516	1	0.1426	334720.000
4518	4517	1	0.1157	543920.000
4519	4516	1	0.1365	459403.200
4520	4519	1	0.1367	456892.800
4521	4520	1	0.1426	334720.000
4522	4521	1	0.1157	543920.000
4523	4520	1	0.1426	334720.000
4524	4523	1	0.1157	543920.000
4525	4519	1	0.1360	284512.000
4526	4515	1	0.1510	265265.600
4527	4526	1	0.1510	265265.600
4528	4527	1	0.1400	392459.200
4529	4528	1	0.1400	392459.200
4530	4529	1	0.1400	392459.200
4531	4530	1	0.1400	392459.200
4532	4527	1	0.1400	392459.200
4533	4526	1	0.1529	224262.400
4534	4533	1	0.1360	307105.600
4535	4533	1	0.1360	307105.600
4536	4533	1	0.1360	307105.600
4537	4511	1	0.1510	265265.600
4538	4537	1	0.1529	224262.400
4539	4538	1	0.1529	224262.400
4540	4538	1	0.1529	224262.400
4541	4509	1	0.1510	265265.600
4542	4506	1	0.1400	392459.200
4543	4503	1	0.1400	392459.200
4544	4485	1	0.1090	284512.000
4545	4485	1	0.1090	284512.000
4546	4485	1	0.1090	284512.000
4547	4487	1	0.1090	284512.000
4548	4487	1	0.1090	284512.000
4549	4488	1	0.1090	284512.000
4550	4488	1	0.1090	284512.000
4551	4491	1	0.1080	307105.600
4552	4492	1	0.1080	307105.600
4553	4495	1	0.1080	307105.600
4554	4496	1	0.1080	307105.600
4555	4498	1	0.14	0.0
4556	4499	1	0.1080	307105.600
4557	4500	1	0.1080	307105.600
4558	4501	1	0.1080	307105.600
4559	4502	1	0.1080	307105.600
4560	4504	1	0.1080	307105.600
4561	4505	1	0.1080	307105.600
4562	4507	1	0.1080	284512.000
4563	4508	1	0.1080	284512.000
4564	4510	1	0.1050	345196.736
4565	4512	1	0.1080	284512.000
4566	4513	1	0.1080	284512.000
4567	4514	1	0.1080	284512.000
4568	4528	1	0.1080	307105.600
4569	4529	1	0.1080	307105.600
4570	4530	1	0.1080	307105.600
4571	4531	1	0.1080	307105.600
4572	4532	1	0.1080	307105.600
4573	4537	1	0.1090	284512.000
4574	4537	1	0.1090	284512.000
4575	4539	1	0.1090	284512.000
4576	4539	1	0.1090	284512.000
4577	4539	1	0.1090	284512.000
4578	4540	1	0.1090	284512.000
4579	4540	1	0.1090	284512.000
4580	4540	1	0.1090	284512.000
4581	4541	1	0.1090	284512.000
4582	4541	1	0.1090	284512.000
4583	4542	1	0.1080	307105.600
4584	4543	1	0.1080	307105.600
4500	4499	1	0.1400	392459.200
4502	4501	1	0.1400	392459.200
4526	4525	1	0.1410	267776.000
4532	4531	1	0.1400	392459.200
4541	4538	1	0.1529	224262.400
4543	4542	1	0.1400	392459.200
4586	4585	1	0.1448	319657.600
4587	4586	1	0.1448	319657.600
4588	4587	1	0.1529	224262.400
4589	4588	1	0.1410	267776.000
4590	4589	1	0.1364	376560.000
4591	4590	1	0.1400	392459.200
4592	4591	1	0.1400	392459.200
4593	4592	1	0.1400	392459.200
4594	4593	1	0.1460	322168.000
4595	4594	1	0.1400	392459.200
4596	4595	1	0.1400	392459.200
4597	4596	1	0.1400	392459.200
4598	4597	1	0.14	0.0
4599	4597	1	0.1400	392459.200
4600	4594	1	0.1400	392459.200
4601	4593	1	0.1400	392459.200
4602	4590	1	0.1400	392459.200
4603	4586	1	0.1340	402500.800
4604	4603	1	0.1400	392459.200
4605	4604	1	0.1400	392459.200
4606	4605	1	0.1400	392459.200
4607	4606	1	0.1433	357313.600
4608	4607	1	0.1345	459403.200
4609	4608	1	0.1345	459403.200
4610	4609	1	0.1345	459403.200
4611	4610	1	0.1345	459403.200
4612	4611	1	0.1345	459403.200
4613	4612	1	0.1345	459403.200
4614	4613	1	0.1345	459403.200
4615	4614	1	0.1433	357313.600
4616	4615	1	0.1340	459403.200
4617	4616	1	0.1426	334720.000
4618	4617	1	0.1157	543920.000
4619	4616	1	0.1365	459403.200
4620	4619	1	0.1367	456892.800
4621	4620	1	0.1426	334720.000
4622	4621	1	0.1157	543920.000
4623	4620	1	0.1426	334720.000
4624	4623	1	0.1157	543920.000
4625	4619	1	0.1360	284512.000
4626	4615	1	0.1510	265265.600
4627	4626	1	0.1510	265265.600
4628	4627	1	0.1400	392459.200
4629	4628	1	0.1400	392459.200
4630	4629	1	0.1400	392459.200
4631	4630	1	0.1400	392459.200
4632	4627	1	0.1400	392459.200
4633	4626	1	0.1529	224262.400
4634	4633	1	0.1360	307105.600
4635	4633	1	0.1360	307105.600
4636	4633	1	0.1360	307105.600
4637	4611	1	0.1510	265265.600
4638	4637	1	0.1529	224262.400
4639	4638	1	0.1529	224262.400
4640	4638	1	0.1529	224262.400
4641	4609	1	0.1510	265265.600
4642	4606	1	0.1400	392459.200
4643	4603	1	0.1400	392459.200
4644	4585	1	0.1090	284512.000
4645	4585	1	0.1090	284512.000
4646	4585	1	0.1090	284512.000
4647	4587	1	0.1090	284512.000
4648	4587	1	0.1090	284512.000
4649	4588	1	0.1090	284512.000
4650	4588	1	0.1090	284512.000
4651	4591	1	0.1080	307105.600
4652	4592	1	0.1080	307105.600
4653	4595	1	0.1080	307105.600
4654	4596	1	0.1080	307105.600
4655	4598	1	0.14	0.0
4656	4599	1	0.1080	307105.600
4657	4600	1	0.1080	307105.600
4658	4601	1	0.1080	307105.600
4659	4602	1	0.1080	307105.600
4660	4604	1	0.1080	307105.600
4661	4605	1	0.1080	307105.600
4662	4607	1	0.1080	284512.000
4663	4608	1	0.1080	284512.000
4664	4610	1	0.1050	345196.736
4665	4612	1	0.1080	284512.000
4666	4613	1	0.1080	284512.000
4667	4614	1	0.1080	284512.000
4668	4628	1	0.1080	307105.600
4669	4629	1	0.1080	307105.600
4670	4630	1	0.1080	307105.600
4671	4631	1	0.1080	307105.600
4672	4632	1	0.1080	307105.600
4673	4637	1	0.1090	284512.000
4674	4637	1	0.1090	284512.000
4675	4639	1	0.1090	284512.000
4676	4639	1	0.1090	284512.000
4677	4639	1	0.1090	284512.000
4678	4640	1	0.1090	284512.000
4679	4640	1	0.1090	284512.000
4680	4640	1	0.1090	284512.000
4681	4641	1	0.1090	284512.000
4682	4641	1	0.1090	284512.000
4683	4642	1	0.1080	307105.600
4684	4643	1	0.1080	307105.600
4600	4599	1	0.1400	392459.200
4602	4601	1	0.1400	392459.200
4626	4625	1	0.1410	267776.000
4632	4631	1	0.1400	392459.200
4641	4638	1	0.1529	224262.400
4643	4642	1	0.1400	392459.200
4686	4685	1	0.1448	319657.600
4687	4686	1	0.1448	319657.600
4688	4687	1	0.1529	224262.400
4689	4688	1	0.1410	267776.000
4690	4689	1	0.1364	376560.000
4691	4690	1	0.1400	392459.200
4692	4691	1	0.1400	392459.200
4693	4692	1	0.1400	392459.200
4694	4693	1	0.1460	322168.000
4695	4694	1	0.1400	392459.200
4696	4695	1	0.1400	392459.200
4697	4696	1	0.1400	392459.200
4698	4697	1	0.14	0.0
4699	4697	1	0.1400	392459.200
4700	4694	1	0.1400	392459.200
4701	4693	1	0.1400	392459.200
4702	4690	1	0.1400	392459.200
4703	4686	1	0.1340	402500.800
4704	4703	1	0.1400	392459.200
4705	4704	1	0.1400	392459.200
4706	4705	1	0.1400	392459.200
4707	4706	1	0.1433	357313.600
4708	4707	1	0.1345	459403.200
4709	4708	1	0.1345	459403.200
4710	4709	1	0.1345	459403.200
4711	4710	1	0.1345	459403.200
4712	4711	1	0.1345	459403.200
4713	4712	1	0.1345	459403.200
4714	4713	1	0.1345	459403.200
4715	4714	1	0.1433	357313.600
4716	4715	1	0.1340	459403.200
4717	4716	1	0.1426	334720.000
4718	4717	1	0.1157	543920.000
4719	4716	1	0.1365	459403.200
4720	4719	1	0.1367	456892.800
4721	4720	1	0.1426	334720.000
4722	4721	1	0.1157	543920.000
4723	4720	1	0.1426	334720.000
4724	4723	1	0.1157	543920.000
4725	4719	1	0.1360	284512.000
4726	4715	1	0.1510	265265.600
4727	4726	1	0.1510	265265.600
4728	4727	1	0.1400	392459.200
4729	4728	1	0.1400	392459.200
4730	4729	1	0.1400	392459.200
4731	4730	1	0.1400	392459.200
4732	4727	1	0.1400	392459.200
4733	4726	1	0.1529	224262.400
4734	4733	1	0.1360	307105.600
4735	4733	1	0.1360	307105.600
4736	4733	1	0.1360	307105.600
4737	4711	1	0.1510	265265.600
4738	4737	1	0.1529	224262.400
4739	4738	1	0.1529	224262.400
4740	4738	1	0.1529	224262.400
4741	4709	1	0.1510	265265.600
4742	4706	1	0.1400	392459.200
4743	4703	1	0.1400	392459.200
4744	4685	1	0.1090	284512.000
4745	4685	1	0.1090	284512.000
4746	4685	1	0.1090	284512.000
4747	4687	1	0.1090	284512.000
4748	4687	1	0.1090	284512.000
4749	4688	1	0.1090	284512.000
4750	4688	1	0.1090	284512.000
4751	4691	1	0.1080	307105.600
4752	4692	1	0.1080	307105.600
4753	4695	1	0.1080	307105.600
4754	4696	1	0.1080	307105.600
4755	4698	1	0.14	0.0
4756	4699	1	0.1080	307105.600
4757	4700	1	0.1080	307105.600
4758	4701	1	0.1080	307105.600
4759	4702	1	0.1080	307105.600
4760	4704	1	0.1080	307105.600
4761	4705	1	0.1080	307105.600
4762	4707	1	0.1080	284512.000
4763	4708	1	0.1080	284512.000
4764	4710	1	0.1050	345196.736
4765	4712	1	0.1080	284512.000
4766	4713	1	0.1080	284512.000
4767	4714	1	0.1080	284512.000
4768	4728	1	0.1080	307105.600
4769	4729	1	0.1080	307105.600
4770	4730	1	0.1080	307105.600
4771	4731	1	0.1080	307105.600
4772	4732	1	0.1080	307105.600
4773	4737	1	0.1090	284512.000
4774	4737	1	0.1090	284512.000
4775	4739	1	0.1090	284512.000
4776	4739	1	0.1090	284512.000
4777	4739	1	0.1090	284512.000
4778	4740	1	0.1090	284512.000
4779	4740	1	0.1090	284512.000
4780	4740	1	0.1090	284512.000
4781	4741	1	0.1090	284512.000
4782	4741	1	0.1090	284512.000
4783	4742	1	0.1080	307105.600
4784	4743	1	0.1080	307105.600
4700	4699	1	0.1400	392459.200
4702	4701	1	0.1400	392459.200
4726	4725	1	0.1410	267776.000
4732	4731	1	0.1400	392459.200
4741	4738	1	0.1529	224262.400
4743	4742	1	0.1400	392459.200
4786	4785	1	0.1448	319657.600
4787	4786	1	0.1448	319657.600
4788	4787	1	0.1529	224262.400
4789	4788	1	0.1410	267776.000
4790	4789	1	0.1364	376560.000
4791	4790	1	0.1400	392459.200
4792	4791	1	0.1400	392459.200
4793	4792	1	0.1400	392459.200
4794	4793	1	0.1460	322168.000
4795	4794	1	0.1400	392459.200
4796	4795	1	0.1400	392459.200
4797	4796	1	0.1400	392459.200
4798	4797	1	0.14	0.0
4799	4797	1	0.1400	392459.200
4800	4794	1	0.1400	392459.200
4801	4793	1	0.1400	392459.200
4802	4790	1	0.1400	392459.200
4803	4786	1	0.1340	402500.800
4804	4803	1	0.1400	392459.200
4805	4804	1	0.1400	392459.200
4806	4805	1	0.1400	392459.200
4807	4806	1	0.1433	357313.600
4808	4807	1	0.1345	459403.200
4809	4808	1	0.1345	459403.200
4810	4809	1	0.1345	459403.200
4811	4810	1	0.1345	459403.200
4812	4811	1	0.1345	459403.200
4813	4812	1	0.1345	459403.200
4814	4813	1	0.1345	459403.200
4815	4814	1	0.1433	357313.600
4816	4815	1	0.1340	459403.200
4817	4816	1	0.1426	334720.000
4818	4817	1	0.1157	543920.000
4819	4816	1	0.1365	459403.200
4820	4819	1	0.1367	456892.800
4821	4820	1	0.1426	334720.000
4822	4821	1	0.1157	543920.000
4823	4820	1	0.1426	334720.000
4824	4823	1	0.1157	543920.000
4825	4819	1	0.1360	284512.000
4826	4815	1	0.1510	265265.600
4827	4826	1	0.1510	265265.600
4828	4827	1	0.1400	392459.200
4829	4828	1	0.1400	392459.200
4830	4829	1	0.1400	392459.200
4831	4830	1	0.1400	392459.200
4832	4827	1	0.1400	392459.200
4833	4826	1	0.1529	224262.400
4834	4833	1	0.1360	307105.600
4835	4833	1	0.1360	307105.600
4836	4833	1	0.1360	307105.600
4837	4811	1	0.1510	265265.600
4838	4837	1	0.1529	224262.400
4839	4838	1	0.1529	224262.400
4840	4838	1	0.1529	224262.400
4841	4809	1	0.1510	265265.600
4842	4806	1	0.1400	392459.200
4843	4803	1	0.1400	392459.200
4844	4785	1	0.1090	284512.000
4845	4785	1	0.1090	284512.000
4846	4785	1	0.1090	284512.000
4847	4787	1	0.1090	284512.000
4848	4787	1	0.1090	284512.000
4849	4788	1	0.1090	284512.000
4850	4788	1	0.1090	284512.000
4851	4791	1	0.1080	307105.600
4852	4792	1	0.1080	307105.600
4853	4795	1	0.1080	307105.600
4854	4796	1	0.1080	307105.600
4855	4798	1	0.14	0.0
4856	4799	1	0.1080	307105.600
4857	4800	1	0.1080	307105.600
4858	4801	1	0.1080	307105.600
4859	4802	1	0.1080	307105.600
4860	4804	1	0.1080	307105.600
4861	4805	1	0.1080	307105.600
4862	4807	1	0.1080	284512.000
4863	4808	1	0.1080	284512.000
4864	4810	1	0.1050	345196.736
4865	4812	1	0.1080	284512.000
4866	4813	1	0.1080	284512.000
4867	4814	1	0.1080	284512.000
4868	4828	1	0.1080	307105.600
4869	4829	1	0.1080	307105.600
4870	4830	1	0.1080	307105.600
4871	4831	1	0.1080	307105.600
4872	4832	1	0.1080	307105.600
4873	4837	1	0.1090	284512.000
4874	4837	1	0.1090	284512.000
4875	4839	1	0.1090	284512.000
4876	4839	1	0.1090	284512.000
4877	4839	1	0.1090	284512.000
4878	4840	1	0.1090	284512.000
4879	4840	1	0.1090	284512.000
4880	4840	1	0.1090	284512.000
4881	4841	1	0.1090	284512.000
4882	4841	1	0.1090	284512.000
4883	4842	1	0.1080	307105.600
4884	4843	1	0.1080	307105.600
4800	4799	1	0.1400	392459.200
4802	4801	1	0.1400	392459.200
4826	4825	1	0.1410	267776.000
4832	4831	1	0.1400	392459.200
4841	4838	1	0.1529	224262.400
4843	4842	1	0.1400	392459.200
4886	4885	1	0.1448	319657.600
4887	4886	1	0.1448	319657.600
4888	4887	1	0.1529	224262.400
4889	4888	1	0.1410	267776.000
4890	4889	1	0.1364	376560.000
4891	4890	1	0.1400	392459.200
4892	4891	1	0.1400	392459.200
4893	4892	1	0.1400	392459.200
4894	4893	1	0.1460	322168.000
4895	4894	1	0.1400	392459.200
4896	4895	1	0.1400	392459.200
4897	4896	1	0.1400	392459.200
4898	4897	1	0.14	0.0
4899	4897	1	0.1400	392459.200
4900	4894	1	0.1400	392459.200
4901	4893	1	0.1400	392459.200
4902	4890	1	0.1400	392459.200
4903	4886	1	0.1340	402500.800
4904	4903	1	0.1400	392459.200
4905	4904	1	0.1400	392459.200
4906	4905	1	0.1400	392459.200
4907	4906	1	0.1433	357313.600
4908	4907	1	0.1345	459403.200
4909	4908	1	0.1345	459403.200
4910	4909	1	0.1345	459403.200
4911	4910	1	0.1345	459403.200
4912	4911	1	0.1345	459403.200
4913	4912	1	0.1345	459403.200
4914	4913	1	0.1345	459403.200
4915	4914	1	0.1433	357313.600
4916	4915	1	0.1340	459403.200
4917	4916	1	0.1426	334720.000
4918	4917	1	0.1157	543920.000
4919	4916	1	0.1365	459403.200
4920	4919	1	0.1367	456892.800
4921	4920	1	0.1426	334720.000
4922	4921	1	0.1157	543920.000
4923	4920	1	0.1426	334720.000
4924	4923	1	0.1157	543920.000
4925	4919	1	0.1360	284512.000
4926	4915	1	0.1510	265265.600
4927	4926	1	0.1510	265265.600
4928	4927	1	0.1400	392459.200
4929	4928	1	0.1400	392459.200
4930	4929	1	0.1400	392459.200
4931	4930	1	0.1400	392459.200
4932	4927	1	0.1400	392459.200
4933	4926	1	0.1529	224262.400
4934	4933	1	0.1360	307105.600
4935	4933	1	0.1360	307105.600
4936	4933	1	0.1360	307105.600
4937	4911	1	0.1510	265265.600
4938	4937	1	0.1529	224262.400
4939	4938	1	0.1529	224262.400
4940	4938	1	0.1529	224262.400
4941	4909	1	0.1510	265265.600
4942	4906	1	0.1400	392459.200
4943	4903	1	0.1400	392459.200
4944	4885	1	0.1090	284512.000
4945	4885	1	0.1090	284512.000
4946	4885	1	0.1090	284512.000
4947	4887	1	0.1090	284512.000
4948	4887	1	0.1090	284512.000
4949	4888	1	0.1090	284512.000
4950	4888	1	0.1090	284512.000
4951	4891	1	0.1080	307105.600
4952	4892	1	0.1080	307105.600
4953	4895	1	0.1080	307105.600
4954	4896	1	0.1080	307105.600
4955	4898	1	0.14	0.0
4956	4899	1	0.1080	307105.600
4957	4900	1	0.1080	307105.600
4958	4901	1	0.1080	307105.600
4959	4902	1	0.1080	307105.600
4960	4904	1	0.1080	307105.600
4961	4905	1	0.1080	307105.600
4962	4907	1	0.1080	284512.000
4963	4908	1	0.1080	284512.000
4964	4910	1	0.1050	345196.736
4965	4912	1	0.1080	284512.000
4966	4913	1	0.1080	284512.000
4967	4914	1	0.1080	284512.000
4968	4928	1	0.1080	307105.600
4969	4929	1	0.1080	307105.600
4970	4930	1	0.1080	307105.600
4971	4931	1	0.1080	307105.600
4972	4932	1	0.1080	307105.600
4973	4937	1	0.1090	284512.000
4974	4937	1	0.1090	284512.000
4975	4939	1	0.1090	284512.000
4976	4939	1	0.1090	284512.000
4977	4939	1	0.1090	284512.000
4978	4940	1	0.1090	284512.000
4979	4940	1	0.1090	284512.000
4980	4940	1	0.1090	284512.000
4981	4941	1	0.1090	284512.000
4982	4941	1	0.1090	284512.000
4983	4942	1	0.1080	307105.600
4984	4943	1	0.1080	307105.600
4900	4899	1	0.1400	392459.200
4902	4901	1	0.1400	392459.200
4926	4925	1	0.1410	267776.000
4932	4931	1	0.1400	392459.200
4941	4938	1	0.1529	224262.400
4943	4942	1	0.1400	392459.200
4986	4985	1	0.1448	319657.600
4987	4986	1	0.1448	319657.600
4988	4987	1	0.1529	224262.400
4989	4988	1	0.1410	267776.000
4990	4989	1	0.1364	376560.000
4991	4990	1	0.1400	392459.200
4992	4991	1	0.1400	392459.200
4993	4992	1	0.1400	392459.200
4994	4993	1	0.1460	322168.000
4995	4994	1	0.1400	392459.200
4996	4995	1	0.1400	392459.200
4997	4996	1	0.1400	392459.200
4998	4997	1	0.14	0.0
4999	4997	1	0.1400	392459.200
5000	4994	1	0.1400	392459.200
5001	4993	1	0.1400	392459.200
5002	4990	1	0.1400	392459.200
5003	4986	1	0.1340	402500.800
5004	5003	1	0.1400	392459.200
5005	5004	1	0.1400	392459.200
5006	5005	1	0.1400	392459.200
5007	5006	1	0.1433	357313.600
5008	5007	1	0.1345	459403.200
5009	5008	1	0.1345	459403.200
5010	5009	1	0.1345	459403.200
5011	5010	1	0.1345	459403.200
5012	5011	1	0.1345	459403.200
5013	5012	1	0.1345	459403.200
5014	5013	1	0.1345	459403.200
5015	5014	1	0.1433	357313.600
5016	5015	1	0.1340	459403.200
5017	5016	1	0.1426	334720.000
5018	5017	1	0.1157	543920.000
5019	5016	1	0.1365	459403.200
5020	5019	1	0.1367	456892.800
5021	5020	1	0.1426	334720.000
5022	5021	1	0.1157	543920.000
5023	5020	1	0.1426	334720.000
5024	5023	1	0.1157	543920.000
5025	5019	1	0.1360	284512.000
5026	5015	1	0.1510	265265.600
5027	5026	1	0.1510	265265.600
5028	5027	1	0.1400	392459.200
5029	5028	1	0.1400	392459.200
5030	5029	1	0.1400	392459.200
5031	5030	1	0.1400	392459.200
5032	5027	1	0.1400	392459.200
5033	5026	1	0.1529	224262.400
5034	5033	1	0.1360	307105.600
5035	5033	1	0.1360	307105.600
5036	5033	1	0.1360	307105.600
5037	5011	1	0.1510	265265.600
5038	5037	1	0.1529	224262.400
5039	5038	1	0.1529	224262.400
5040	5038	1	0.1529	224262.400
5041	5009	1	0.1510	265265.600
5042	5006	1	0.1400	392459.200
5043	5003	1	0.1400	392459.200
5044	4985	1	0.1090	284512.000
5045	4985	1	0.1090	284512.000
5046	4985	1	0.1090	284512.000
5047	4987	1	0.1090	284512.000
5048	4987	1	0.1090	284512.000
5049	4988	1	0.1090	284512.000
5050	4988	1	0.1090	284512.000
5051	4991	1	0.1080	307105.600
5052	4992	1	0.1080	307105.600
5053	4995	1	0.1080	307105.600
5054	4996	1	0.1080	307105.600
5055	4998	1	0.14	0.0
5056	4999	1	0.1080	307105.600
5057	5000	1	0.1080	307105.600
5058	5001	1	0.1080	307105.600
5059	5002	1	0.1080	307105.600
5060	5004	1	0.1080	307105.600
5061	5005	1	0.1080	307105.600
5062	5007	1	0.1080	284512.000
5063	5008	1	0.1080	284512.000
5064	5010	1	0.1050	345196.736
5065	5012	1	0.1080	284512.000
5066	5013	1	0.1080	284512.000
5067	5014	1	0.1080	284512.000
5068	5028	1	0.1080	307105.600
5069	5029	1	0.1080	307105.600
5070	5030	1	0.1080	307105.600
5071	5031	1	0.1080	307105.600
5072	5032	1	0.1080	307105.600
5073	5037	1	0.1090	284512.000
5074	5037	1	0.1090	284512.000
5075	5039	1	0.1090	284512.000
5076	5039	1	0.1090	284512.000
5077	5039	1	0.1090	284512.000
5078	5040	1	0.1090	284512.000
5079	5040	1	0.1090	284512.000
5080	5040	1	0.1090	284512.000
5081	5041	1	0.1090	284512.000
5082	5041	1	0.1090	284512.000
5083	5042	1	0.1080	307105.600
5084	5043	1	0.1080	307105.600
5000	4999	1	0.1400	392459.200
5002	5001	1	0.1400	392459.200
5026	5025	1	0.1410	267776.000
5032	5031	1	0.1400	392459.200
5041	5038	1	0.1529	224262.400
5043	5042	1	0.1400	392459.200
5086	5085	1	0.1448	319657.600
5087	5086	1	0.1448	319657.600
5088	5087	1	0.1529	224262.400
5089	5088	1	0.1410	267776.000
5090	5089	1	0.1364	376560.000
5091	5090	1	0.1400	392459.200
5092	5091	1	0.1400	392459.200
5093	5092	1	0.1400	392459.200
5094	5093	1	0.1460	322168.000
5095	5094	1	0.1400	392459.200
5096	5095	1	0.1400	392459.200
5097	5096	1	0.1400	392459.200
5098	5097	1	0.14	0.0
5099	5097	1	0.1400	392459.200
5100	5094	1	0.1400	392459.200
5101	5093	1	0.1400	392459.200
5102	5090	1	0.1400	392459.200
5103	5086	1	0.1340	402500.800
5104	5103	1	0.1400	392459.200
5105	5104	1	0.1400	392459.200
5106	5105	1	0.1400	392459.200
5107	5106	1	0.1433	357313.600
5108	5107	1	0.1345	459403.200
5109	5108	1	0.1345	459403.200
5110	5109	1	0.1345	459403.200
5111	5110	1	0.1345	459403.200
5112	5111	1	0.1345	459403.200
5113	5112	1	0.1345	459403.200
5114	5113	1	0.1345	459403.200
5115	5114	1	0.1433	357313.600
5116	5115	1	0.1340	459403.200
5117	5116	1	0.1426	334720.000
5118	5117	1	0.1157	543920.000
5119	5116	1	0.1365	459403.200
5120	5119	1	0.1367	456892.800
5121	5120	1	0.1426	334720.000
5122	5121	1	0.1157	543920.000
5123	5120	1	0.1426	334720.000
5124	5123	1	0.1157	543920.000
5125	5119	1	0.1360	284512.000
5126	5115	1	0.1510	265265.600
5127	5126	1	0.1510	265265.600
5128	5127	1	0.1400	392459.200
5129	5128	1	0.1400	392459.200
5130	5129	1	0.1400	392459.200
5131	5130	1	0.1400	392459.200
5132	5127	1	0.1400	392459.200
5133	5126	1	0.1529	224262.400
5134	5133	1	0.1360	307105.600
5135	5133	1	0.1360	307105.600
5136	5133	1	0.1360	307105.600
5137	5111	1	0.1510	265265.600
5138	5137	1	0.1529	224262.400
5139	5138	1	0.1529	224262.400
5140	5138	1	0.1529	224262.400
5141	5109	1	0.1510	265265.600
5142	5106	1	0.1400	392459.200
5143	5103	1	0.1400	392459.200
5144	5085	1	0.1090	284512.000
5145	5085	1	0.1090	284512.000
5146	5085	1	0.1090	284512.000
5147	5087	1	0.1090	284512.000
5148	5087	1	0.1090	284512.000
5149	5088	1	0.1090	284512.000
5150	5088	1	0.1090	284512.000
5151	5091	1	0.1080	307105.600
5152	5092	1	0.1080	307105.600
5153	5095	1	0.1080	307105.600
5154	5096	1	0.1080	307105.600
5155	5098	1	0.14	0.0
5156	5099	1	0.1080	307105.600
5157	5100	1	0.1080	307105.600
5158	5101	1	0.1080	307105.600
5159	5102	1	0.1080	307105.600
5160	5104	1	0.1080	307105.600
5161	5105	1	0.1080	307105.600
5162	5107	1	0.1080	284512.000
5163	5108	1	0.1080	284512.000
5164	5110	1	0.1050	345196.736
5165	5112	1	0.1080	284512.000
5166	5113	1	0.1080	284512.000
5167	5114	1	0.1080	284512.000
5168	5128	1	0.1080	307105.600
5169	5129	1	0.1080	307105.600
5170	5130	1	0.1080	307105.600
5171	5131	1	0.1080	307105.600
5172	5132	1	0.1080	307105.600
5173	5137	1	0.1090	284512.000
5174	5137	1	0.1090	284512.000
5175	5139	1	0.1090	284512.000
5176	5139	1	0.1090	284512.000
5177	5139	1	0.1090	284512.000
5178	5140	1	0.1090	284512.000
5179	5140	1	0.1090	284512.000
5180	5140	1	0.1090	284512.000
5181	5141	1	0.1090	284512.000
5182	5141	1	0.1090	284512.000
5183	5142	1	0.1080	307105.600
5184	5143	1	0.1080	307105.600
5100	5099	1	0.1400	392459.200
5102	5101	1	0.1400	392459.200
5126	5125	1	0.1410	267776.000
5132	5131	1	0.1400	392459.200
5141	5138	1	0.1529	224262.400
5143	5142	1	0.1400	392459.200
5186	5185	1	0.1448	319657.600
5187	5186	1	0.1448	319657.600
5188	5187	1	0.1529	224262.400
5189	5188	1	0.1410	267776.000
5190	5189	1	0.1364	376560.000
5191	5190	1	0.1400	392459.200
5192	5191	1	0.1400	392459.200
5193	5192	1	0.1400	392459.200
5194	5193	1	0.1460	322168.000
5195	5194	1	0.1400	392459.200
5196	5195	1	0.1400	392459.200
5197	5196	1	0.1400	392459.200
5198	5197	1	0.14	0.0
5199	5197	1	0.1400	392459.200
5200	5194	1	0.1400	392459.200
5201	5193	1	0.1400	392459.200
5202	5190	1	0.1400	392459.200
5203	5186	1	0.1340	402500.800
5204	5203	1	0.1400	392459.200
5205	5204	1	0.1400	392459.200
5206	5205	1	0.1400	392459.200
5207	5206	1	0.1433	357313.600
5208	5207	1	0.1345	459403.200
5209	5208	1	0.1345	459403.200
5210	5209	1	0.1345	459403.200
5211	5210	1	0.1345	459403.200
5212	5211	1	0.1345	459403.200
5213	5212	1	0.1345	459403.200
5214	5213	1	0.1345	459403.200
5215	5214	1	0.1433	357313.600
5216	5215	1	0.1340	459403.200
5217	5216	1	0.1426	334720.000
5218	5217	1	0.1157	543920.000
5219	5216	1	0.1365	459403.200
5220	5219	1	0.1367	456892.800
5221	5220	1	0.1426	334720.000
5222	5221	1	0.1157	543920.000
5223	5220	1	0.1426	334720.000
5224	5223	1	0.1157	543920.000
5225	5219	1	0.1360	284512.000
5226	5215	1	0.1510	265265.600
5227	5226	1	0.1510	265265.600
5228	5227	1	0.1400	392459.200
5229	5228	1	0.1400	392459.200
5230	5229	1	0.1400	392459.200
5231	5230	1	0.1400	392459.200
5232	5227	1	0.1400	392459.200
5233	5226	1	0.1529	224262.400
5234	5233	1	0.1360	307105.600
5235	5233	1	0.1360	307105.600
5236	5233	1	0.1360	307105.600
5237	5211	1	0.1510	265265.600
5238	5237	1	0.1529	224262.400
5239	5238	1	0.1529	224262.400
5240	5238	1	0.1529	224262.400
5241	5209	1	0.1510	265265.600
5242	5206	1	0.1400	392459.200
5243	5203	1	0.1400	392459.200
5244	5185	1	0.1090	284512.000
5245	5185	1	0.1090	284512.000
5246	5185	1	0.1090	284512.000
5247	5187	1	0.1090	284512.000
5248	5187	1	0.1090	284512.000
5249	5188	1	0.1090	284512.000
5250	5188	1	0.1090	284512.000
5251	5191	1	0.1080	307105.600
5252	5192	1	0.1080	307105.600
5253	5195	1	0.1080	307105.600
5254	5196	1	0.1080	307105.600
5255	5198	1	0.14	0.0
5256	5199	1	0.1080	307105.600
5257	5200	1	0.1080	307105.600
5258	5201	1	0.1080	307105.600
5259	5202	1	0.1080	307105.600
5260	5204	1	0.1080	307105.600
5261	5205	1	0.1080	307105.600
5262	5207	1	0.1080	284512.000
5263	5208	1	0.1080	284512.000
5264	5210	1	0.1050	345196.736
5265	5212	1	0.1080	284512.000
5266	5213	1	0.1080	284512.000
5267	5214	1	0.1080	284512.000
5268	5228	1	0.1080	307105.600
5269	5229	1	0.1080	307105.600
5270	5230	1	0.1080	307105.600
5271	5231	1	0.1080	307105.600
5272	5232	1	0.1080	307105.600
5273	5237	1	0.1090	284512.000
5274	5237	1	0.1090	284512.000
5275	5239	1	0.1090	284512.000
5276	5239	1	0.1090	284512.000
5277	5239	1	0.1090	284512.000
5278	5240	1	0.1090	284512.000
5279	5240	1	0.1090	284512.000
5280	5240	1	0.1090	284512.000
5281	5241	1	0.1090	284512.000
5282	5241	1	0.1090	284512.000
5283	5242	1	0.1080	307105.600
5284	5243	1	0.1080	307105.600
5200	5199	1	0.1400	392459.200
5202	5201	1	0.1400	392459.200
5226	5225	1	0.1410	267776.000
5232	5231	1	0.1400	392459.200
5241	5238	1	0.1529	224262.400
5243	5242	1	0.1400	392459.200
5286	5285	1	0.1448	319657.600
5287	5286	1	0.1448	319657.600
5288	5287	1	0.1529	224262.400
5289	5288	1	0.1410	267776.000
5290	5289	1	0.1364	376560.000
5291	5290	1	0.1400	392459.200
5292	5291	1	0.1400	392459.200
5293	5292	1	0.1400	392459.200
5294	5293	1	0.1460	322168.000
5295	5294	1	0.1400	392459.200
5296	5295	1	0.1400	392459.200
5297	5296	1	0.1400	392459.200
5298	5297	1	0.14	0.0
5299	5297	1	0.1400	392459.200
5300	5294	1	0.1400	392459.200
5301	5293	1	0.1400	392459.200
5302	5290	1	0.1400	392459.200
5303	5286	1	0.1340	402500.800
5304	5303	1	0.1400	392459.200
5305	5304	1	0.1400	392459.200
5306	5305	1	0.1400	392459.200
5307	5306	1	0.1433	357313.600
5308	5307	1	0.1345	459403.200
5309	5308	1	0.1345	459403.200
5310	5309	1	0.1345	459403.200
5311	5310	1	0.1345	459403.200
5312	5311	1	0.1345	459403.200
5313	5312	1	0.1345	459403.200
5314	5313	1	0.1345	459403.200
5315	5314	1	0.1433	357313.600
5316	5315	1	0.1340	459403.200
5317	5316	1	0.1426	334720.000
5318	5317	1	0.1157	543920.000
5319	5316	1	0.1365	459403.200
5320	5319	1	0.1367	456892.800
5321	5320	1	0.1426	334720.000
5322	5321	1	0.1157	543920.000
5323	5320	1	0.1426	334720.000
5324	5323	1	0.1157	543920.000
5325	5319	1	0.1360	284512.000
5326	5315	1	0.1510	265265.600
5327	5326	1	0.1510	265265.600
5328	5327	1	0.1400	392459.200
5329	5328	1	0.1400	392459.200
5330	5329	1	0.1400	392459.200
5331	5330	1	0.1400	392459.200
5332	5327	1	0.1400	392459.200
5333	5326	1	0.1529	224262.400
5334	5333	1	0.1360	307105.600
5335	5333	1	0.1360	307105.600
5336	5333	1	0.1360	307105.600
5337	5311	1	0.1510	265265.600
5338	5337	1	0.1529	224262.400
5339	5338	1	0.1529	224262.400
5340	5338	1	0.1529	224262.400
5341	5309	1	0.1510	265265.600
5342	5306	1	0.1400	392459.200
5343	5303	1	0.1400	392459.200
5344	5285	1	0.1090	284512.000
5345	5285	1	0.1090	284512.000
5346	5285	1	0.1090	284512.000
5347	5287	1	0.1090	284512.000
5348	5287	1	0.1090	284512.000
5349	5288	1	0.1090	284512.000
5350	5288	1	0.1090	284512.000
5351	5291	1	0.1080	307105.600
5352	5292	1	0.1080	307105.600
5353	5295	1	0.1080	307105.600
5354	5296	1	0.1080	307105.600
5355	5298	1	0.14	0.0
5356	5299	1	0.1080	307105.600
5357	5300	1	0.1080	307105.600
5358	5301	1	0.1080	307105.600
5359	5302	1	0.1080	307105.600
5360	5304	1	0.1080	307105.600
5361	5305	1	0.1080	307105.600
5362	5307	1	0.1080	284512.000
5363	5308	1	0.1080	284512.000
5364	5310	1	0.1050	345196.736
5365	5312	1	0.1080	284512.000
5366	5313	1	0.1080	284512.000
5367	5314	1	0.1080	284512.000
5368	5328	1	0.1080	307105.600
5369	5329	1	0.1080	307105.600
5370	5330	1	0.1080	307105.600
5371	5331	1	0.1080	307105.600
5372	5332	1	0.1080	307105.600
5373	5337	1	0.1090	284512.000
5374	5337	1	0.1090	284512.000
5375	5339	1	0.1090	284512.000
5376	5339	1	0.1090	284512.000
5377	5339	1	0.1090	284512.000
5378	5340	1	0.1090	284512.000
5379	5340	1	0.1090	284512.000
5380	5340	1	0.1090	284512.000
5381	5341	1	0.1090	284512.000
5382	5341	1	0.1090	284512.000
5383	5342	1	0.1080	307105.600
5384	5343	1	0.1080	307105.600
5300	5299	1	0.1400	392459.200
5302	5301	1	0.1400	392459.200
5326	5325	1	0.1410	267776.000
5332	5331	1	0.1400	392459.200
5341	5338	1	0.1529	224262.400
5343	5342	1	0.1400	392459.200
5386	5385	1	0.1448	319657.600
5387	5386	1	0.1448	319657.600
5388	5387	1	0.1529	224262.400
5389	5388	1	0.1410	267776.000
5390	5389	1	0.1364	376560.000
5391	5390	1	0.1400	392459.200
5392	5391	1	0.1400	392459.200
5393	5392	1	0.1400	392459.200
5394	5393	1	0.1460	322168.000
5395	5394	1	0.1400	392459.200
5396	5395	1	0.1400	392459.200
5397	5396	1	0.1400	392459.200
5398	5397	1	0.14	0.0
5399	5397	1	0.1400	392459.200
5400	5394	1	0.1400	392459.200
5401	5393	1	0.1400	392459.200
5402	5390	1	0.1400	392459.200
5403	5386	1	0.1340	402500.800
5404	5403	1	0.1400	392459.200
5405	5404	1	0.1400	392459.200
5406	5405	1	0.1400	392459.200
5407	5406	1	0.1433	357313.600
5408	5407	1	0.1345	459403.200
5409	5408	1	0.1345	459403.200
5410	5409	1	0.1345	459403.200
5411	5410	1	0.1345	459403.200
5412	5411	1	0.1345	459403.200
5413	5412	1	0.1345	459403.200
5414	5413	1	0.1345	459403.200
5415	5414	1	0.1433	357313.600
5416	5415	1	0.1340	459403.200
5417	5416	1	0.1426	334720.000
5418	5417	1	0.1157	543920.000
5419	5416	1	0.1365	459403.200
5420	5419	1	0.1367	456892.800
5421	5420	1	0.1426	334720.000
5422	5421	1	0.1157	543920.000
5423	5420	1	0.1426	334720.000
5424	5423	1	0.1157	543920.000
5425	5419	1	0.1360	284512.000
5426	5415	1	0.1510	265265.600
5427	5426	1	0.1510	265265.600
5428	5427	1	0.1400	392459.200
5429	5428	1	0.1400	392459.200
5430	5429	1	0.1400	392459.200
5431	5430	1	0.1400	392459.200
5432	5427	1	0.1400	392459.200
5433	5426	1	0.1529	224262.400
5434	5433	1	0.1360	307105.600
5435	5433	1	0.1360	307105.600
5436	5433	1	0.1360	307105.600
5437	5411	1	0.1510	265265.600
5438	5437	1	0.1529	224262.400
5439	5438	1	0.1529	224262.400
5440	5438	1	0.1529	224262.400
5441	5409	1	0.1510	265265.600
5442	5406	1	0.1400	392459.200
5443	5403	1	0.1400	392459.200
5444	5385	1	0.1090	284512.000
5445	5385	1	0.1090	284512.000
5446	5385	1	0.1090	284512.000
5447	5387	1	0.1090	284512.000
5448	5387	1	0.1090	284512.000
5449	5388	1	0.1090	284512.000
5450	5388	1	0.1090	284512.000
5451	5391	1	0.1080	307105.600
5452	5392	1	0.1080	307105.600
5453	5395	1	0.1080	307105.600
5454	5396	1	0.1080	307105.600
5455	5398	1	0.14	0.0
5456	5399	1	0.1080	307105.600
5457	5400	1	0.1080	307105.600
5458	5401	1	0.1080	307105.600
5459	5402	1	0.1080	307105.600
5460	5404	1	0.1080	307105.600
5461	5405	1	0.1080	307105.600
5462	5407	1	0.1080	284512.000
5463	5408	1	0.1080	284512.000
5464	5410	1	0.1050	345196.736
5465	5412	1	0.1080	284512.000
5466	5413	1	0.1080	284512.000
5467	5414	1	0.1080	284512.000
5468	5428	1	0.1080	307105.600
5469	5429	1	0.1080	307105.600
5470	5430	1	0.1080	307105.600
5471	5431	1	0.1080	307105.600
5472	5432	1	0.1080	307105.600
5473	5437	1	0.1090	284512.000
5474	5437	1	0.1090	284512.000
5475	5439	1	0.1090	284512.000
5476	5439	1	0.1090	284512.000
5477	5439	1	0.1090	284512.000
5478	5440	1	0.1090	284512.000
5479	5440	1	0.1090	284512.000
5480	5440	1	0.1090	284512.000
5481	5441	1	0.1090	284512.000
5482	5441	1	0.1090	284512.000
5483	5442	1	0.1080	307105.600
5484	5443	1	0.1080	307105.600
5400	5399	1	0.1400	392459.200
5402	5401	1	0.1400	392459.200
5426	5425	1	0.1410	267776.000
5432	5431	1	0.1400	392459.200
5441	5438	1	0.1529	224262.400
5443	5442	1	0.1400	392459.200
5486	5485	1	0.1448	319657.600
5487	5486	1	0.1448	319657.600
5488	5487	1	0.1529	224262.400
5489	5488	1	0.1410	267776.000
5490	5489	1	0.1364	376560.000
5491	5490	1	0.1400	392459.200
5492	5491	1	0.1400	392459.200
5493	5492	1	0.1400	392459.200
5494	5493	1	0.1460	322168.000
5495	5494	1	0.1400	392459.200
5496	5495	1	0.1400	392459.200
5497	5496	1	0.1400	392459.200
5498	5497	1	0.14	0.0
5499	5497	1	0.1400	392459.200
5500	5494	1	0.1400	392459.200
5501	5493	1	0.1400	392459.200
5502	5490	1	0.1400	392459.200
5503	5486	1	0.1340	402500.800
5504	5503	1	0.1400	392459.200
5505	5504	1	0.1400	392459.200
5506	5505	1	0.1400	392459.200
5507	5506	1	0.1433	357313.600
5508	5507	1	0.1345	459403.200
5509	5508	1	0.1345	459403.200
5510	5509	1	0.1345	459403.200
5511	5510	1	0.1345	459403.200
5512	5511	1	0.1345	459403.200
5513	5512	1	0.1345	459403.200
5514	5513	1	0.1345	459403.200
5515	5514	1	0.1433	357313.600
5516	5515	1	0.1340	459403.200
5517	5516	1	0.1426	334720.000
5518	5517	1	0.1157	543920.000
5519	5516	1	0.1365	459403.200
5520	5519	1	0.1367	456892.800
5521	5520	1	0.1426	334720.000
5522	5521	1	0.1157	543920.000
5523	5520	1	0.1426	334720.000
5524	5523	1	0.1157	543920.000
5525	5519	1	0.1360	284512.000
5526	5515	1	0.1510	265265.600
5527	5526	1	0.1510	265265.600
5528	5527	1	0.1400	392459.200
5529	5528	1	0.1400	392459.200
5530	5529	1	0.1400	392459.200
5531	5530	1	0.1400	392459.200
5532	5527	1	0.1400	392459.200
5533	5526	1	0.1529	224262.400
5534	5533	1	0.1360	307105.600
5535	5533	1	0.1360	307105.600
5536	5533	1	0.1360	307105.600
5537	5511	1	0.1510	265265.600
5538	5537	1	0.1529	224262.400
5539	5538	1	0.1529	224262.400
5540	5538	1	0.1529	224262.400
5541	5509	1	0.1510	265265.600
5542	5506	1	0.1400	392459.200
5543	5503	1	0.1400	392459.200
5544	5485	1	0.1090	284512.000
5545	5485	1	0.1090	284512.000
5546	5485	1	0.1090	284512.000
5547	5487	1	0.1090	284512.000
5548	5487	1	0.1090	284512.000
5549	5488	1	0.1090	284512.000
5550	5488	1	0.1090	284512.000
5551	5491	1	0.1080	307105.600
5552	5492	1	0.1080	307105.600
5553	5495	1	0.1080	307105.600
5554	5496	1	0.1080	307105.600
5555	5498	1	0.14	0.0
5556	5499	1	0.1080	307105.600
5557	5500	1	0.1080	307105.600
5558	5501	1	0.1080	307105.600
5559	5502	1	0.1080	307105.600
5560	5504	1	0.1080	307105.600
5561	5505	1	0.1080	307105.600
5562	5507	1	0.1080	284512.000
5563	5508	1	0.1080	284512.000
5564	5510	1	0.1050	345196.736
5565	5512	1	0.1080	284512.000
5566	5513	1	0.1080	284512.000
5567	5514	1	0.1080	284512.000
5568	5528	1	0.1080	307105.600
5569	5529	1	0.1080	307105.600
5570	5530	1	0.1080	307105.600
5571	5531	1	0.1080	307105.600
5572	5532	1	0.1080	307105.600
5573	5537	1	0.1090	284512.000
5574	5537	1	0.1090	284512.000
5575	5539	1	0.1090	284512.000
5576	5539	1	0.1090	284512.000
5577	5539	1	0.1090	284512.000
5578	5540	1	0.1090	284512.000
5579	5540	1	0.1090	284512.000
5580	5540	1	0.1090	284512.000
5581	5541	1	0.1090	284512.000
5582	5541	1	0.1090	284512.000
5583	5542	1	0.1080	307105.600
5584	5543	1	0.1080	307105.600
5500	5499	1	0.1400	392459.200
5502	5501	1	0.1400	392459.200
5526	5525	1	0.1410	267776.000
5532	5531	1	0.1400	392459.200
5541	5538	1	0.1529	224262.400
5543	5542	1	0.1400	392459.200
5586	5585	1	0.1448	319657.600
5587	5586	1	0.1448	319657.600
5588	5587	1	0.1529	224262.400
5589	5588	1	0.1410	267776.000
5590	5589	1	0.1364	376560.000
5591	5590	1	0.1400	392459.200
5592	5591	1	0.1400	392459.200
5593	5592	1	0.1400	392459.200
5594	5593	1	0.1460	322168.000
5595	5594	1	0.1400	392459.200
5596	5595	1	0.1400	392459.200
5597	5596	1	0.1400	392459.200
5598	5597	1	0.14	0.0
5599	5597	1	0.1400	392459.200
5600	5594	1	0.1400	392459.200
5601	5593	1	0.1400	392459.200
5602	5590	1	0.1400	392459.200
5603	5586	1	0.1340	402500.800
5604	5603	1	0.1400	392459.200
5605	5604	1	0.1400	392459.200
5606	5605	1	0.1400	392459.200
5607	5606	1	0.1433	357313.600
5608	5607	1	0.1345	459403.200
5609	5608	1	0.1345	459403.200
5610	5609	1	0.1345	459403.200
5611	5610	1	0.1345	459403.200
5612	5611	1	0.1345	459403.200
5613	5612	1	0.1345	459403.200
5614	5613	1	0.1345	459403.200
5615	5614	1	0.1433	357313.600
5616	5615	1	0.1340	459403.200
5617	5616	1	0.1426	334720.000
5618	5617	1	0.1157	543920.000
5619	5616	1	0.1365	459403.200
5620	5619	1	0.1367	456892.800
5621	5620	1	0.1426	334720.000
5622	5621	1	0.1157	543920.000
5623	5620	1	0.1426	334720.000
5624	5623	1	0.1157	543920.000
5625	5619	1	0.1360	284512.000
5626	5615	1	0.1510	265265.600
5627	5626	1	0.1510	265265.600
5628	5627	1	0.1400	392459.200
5629	5628	1	0.1400	392459.200
5630	5629	1	0.1400	392459.200
5631	5630	1	0.1400	392459.200
5632	5627	1	0.1400	392459.200
5633	5626	1	0.1529	224262.400
5634	5633	1	0.1360	307105.600
5635	5633	1	0.1360	307105.600
5636	5633	1	0.1360	307105.600
5637	5611	1	0.1510	265265.600
5638	5637	1	0.1529	224262.400
5639	5638	1	0.1529	224262.400
5640	5638	1	0.1529	224262.400
5641	5609	1	0.1510	265265.600
5642	5606	1	0.1400	392459.200
5643	5603	1	0.1400	392459.200
5644	5585	1	0.1090	284512.000
5645	5585	1	0.1090	284512.000
5646	5585	1	0.1090	284512.000
5647	5587	1	0.1090	284512.000
5648	5587	1	0.1090	284512.000
5649	5588	1	0.1090	284512.000
5650	5588	1	0.1090	284512.000
5651	5591	1	0.1080	307105.600
5652	5592	1	0.1080	307105.600
5653	5595	1	0.1080	307105.600
5654	5596	1	0.1080	307105.600
5655	5598	1	0.14	0.0
5656	5599	1	0.1080	307105.600
5657	5600	1	0.1080	307105.600
5658	5601	1	0.1080	307105.600
5659	5602	1	0.1080	307105.600
5660	5604	1	0.1080	307105.600
5661	5605	1	0.1080	307105.600
5662	5607	1	0.1080	284512.000
5663	5608	1	0.1080	284512.000
5664	5610	1	0.1050	345196.736
5665	5612	1	0.1080	284512.000
5666	5613	1	0.1080	284512.000
5667	5614	1	0.1080	284512.000
5668	5628	1	0.1080	307105.600
5669	5629	1	0.1080	307105.600
5670	5630	1	0.1080	307105.600
5671	5631	1	0.1080	307105.600
5672	5632	1	0.1080	307105.600
5673	5637	1	0.1090	284512.000
5674	5637	1	0.1090	284512.000
5675	5639	1	0.1090	284512.000
5676	5639	1	0.1090	284512.000
5677	5639	1	0.1090	284512.000
5678	5640	1	0.1090	284512.000
5679	5640	1	0.1090	284512.000
5680	5640	1	0.1090	284512.000
5681	5641	1	0.1090	284512.000
5682	5641	1	0.1090	284512.000
5683	5642	1	0.1080	307105.600
5684	5643	1	0.1080	307105.600
5600	5599	1	0.1400	392459.200
5602	5601	1	0.1400	392459.200
5626	5625	1	0.1410	267776.000
5632	5631	1	0.1400	392459.200
5641	5638	1	0.1529	224262.400
5643	5642	1	0.1400	392459.200
5686	5685	1	0.1448	319657.600
5687	5686	1	0.1448	319657.600
5688	5687	1	0.1529	224262.400
5689	5688	1	0.1410	267776.000
5690	5689	1	0.1364	376560.000
5691	5690	1	0.1400	392459.200
5692	5691	1	0.1400	392459.200
5693	5692	1	0.1400	392459.200
5694	5693	1	0.1460	322168.000
5695	5694	1	0.1400	392459.200
5696	5695	1	0.1400	392459.200
5697	5696	1	0.1400	392459.200
5698	5697	1	0.14	0.0
5699	5697	1	0.1400	392459.200
5700	5694	1	0.1400	392459.200
5701	5693	1	0.1400	392459.200
5702	5690	1	0.1400	392459.200
5703	5686	1	0.1340	402500.800
5704	5703	1	0.1400	392459.200
5705	5704	1	0.1400	392459.200
5706	5705	1	0.1400	392459.200
5707	5706	1	0.1433	357313.600
5708	5707	1	0.1345	459403.200
5709	5708	1	0.1345	459403.200
5710	5709	1	0.1345	459403.200
5711	5710	1	0.1345	459403.200
5712	5711	1	0.1345	459403.200
5713	5712	1	0.1345	459403.200
5714	5713	1	0.1345	459403.200
5715	5714	1	0.1433	357313.600
5716	5715	1	0.1340	459403.200
5717	5716	1	0.1426	334720.000
5718	5717	1	0.1157	543920.000
5719	5716	1	0.1365	459403.200
5720	5719	1	0.1367	456892.800
5721	5720	1	0.1426	334720.000
5722	5721	1	0.1157	543920.000
5723	5720	1	0.1426	334720.000
5724	5723	1	0.1157	543920.000
5725	5719	1	0.1360	284512.000
5726	5715	1	0.1510	265265.600
5727	5726	1	0.1510	265265.600
5728	5727	1	0.1400	392459.200
5729	5728	1	0.1400	392459.200
5730	5729	1	0.1400	392459.200
5731	5730	1	0.1400	392459.200
5732	5727	1	0.1400	392459.200
5733	5726	1	0.1529	224262.400
5734	5733	1	0.1360	307105.600
5735	5733	1	0.1360	307105.600
5736	5733	1	0.1360	307105.600
5737	5711	1	0.1510	265265.600
5738	5737	1	0.1529	224262.400
5739	5738	1	0.1529	224262.400
5740	5738	1	0.1529	224262.400
5741	5709	1	0.1510	265265.600
5742	5706	1	0.1400	392459.200
5743	5703	1	0.1400	392459.200
5744	5685	1	0.1090	284512.000
5745	5685	1	0.1090	284512.000
5746	5685	1	0.1090	284512.000
5747	5687	1	0.1090	284512.000
5748	5687	1	0.1090	284512.000
5749	5688	1	0.1090	284512.000
5750	5688	1	0.1090	284512.000
5751	5691	1	0.1080	307105.600
5752	5692	1	0.1080	307105.600
5753	5695	1	0.1080	307105.600
5754	5696	1	0.1080	307105.600
5755	5698	1	0.14	0.0
5756	5699	1	0.1080	307105.600
5757	5700	1	0.1080	307105.600
5758	5701	1	0.1080	307105.600
5759	5702	1	0.1080	307105.600
5760	5704	1	0.1080	307105.600
5761	5705	1	0.1080	307105.600
5762	5707	1	0.1080	284512.000
5763	5708	1	0.1080	284512.000
5764	5710	1	0.1050	345196.736
5765	5712	1	0.1080	284512.000
5766	5713	1	0.1080	284512.000
5767	5714	1	0.1080	284512.000
5768	5728	1	0.1080	307105.600
5769	5729	1	0.1080	307105.600
5770	5730	1	0.1080	307105.600
5771	5731	1	0.1080	307105.600
5772	5732	1	0.1080	307105.600
5773	5737	1	0.1090	284512.000
5774	5737	1	0.1090	284512.000
5775	5739	1	0.1090	284512.000
5776	5739	1	0.1090	284512.000
5777	5739	1	0.1090	284512.000
5778	5740	1	0.1090	284512.000
5779	5740	1	0.1090	284512.000
5780	5740	1	0.1090	284512.000
5781	5741	1	0.1090	284512.000
5782	5741	1	0.1090	284512.000
5783	5742	1	0.1080	307105.600
5784	5743	1	0.1080	307105.600
5700	5699	1	0.1400	392459.200
5702	5701	1	0.1400	392459.200
5726	5725	1	0.1410	267776.000
5732	5731	1	0.1400	392459.200
5741	5738	1	0.1529	224262.400
5743	5742	1	0.1400	392459.200
5786	5785	1	0.1448	319657.600
5787	5786	1	0.1448	319657.600
5788	5787	1	0.1529	224262.400
5789	5788	1	0.1410	267776.000
5790	5789	1	0.1364	376560.000
5791	5790	1	0.1400	392459.200
5792	5791	1	0.1400	392459.200
5793	5792	1	0.1400	392459.200
5794	5793	1	0.1460	322168.000
5795	5794	1	0.1400	392459.200
5796	5795	1	0.1400	392459.200
5797	5796	1	0.1400	392459.200
5798	5797	1	0.14	0.0
5799	5797	1	0.1400	392459.200
5800	5794	1	0.1400	392459.200
5801	5793	1	0.1400	392459.200
5802	5790	1	0.1400	392459.200
5803	5786	1	0.1340	402500.800
5804	5803	1	0.1400	392459.200
5805	5804	1	0.1400	392459.200
5806	5805	1	0.1400	392459.200
5807	5806	1	0.1433	357313.600
5808	5807	1	0.1345	459403.200
5809	5808	1	0.1345	459403.200
5810	5809	1	0.1345	459403.200
5811	5810	1	0.1345	459403.200
5812	5811	1	0.1345	459403.200
5813	5812	1	0.1345	459403.200
5814	5813	1	0.1345	459403.200
5815	5814	1	0.1433	357313.600
5816	5815	1	0.1340	459403.200
5817	5816	1	0.1426	334720.000
5818	5817	1	0.1157	543920.000
5819	5816	1	0.1365	459403.200
5820	5819	1	0.1367	456892.800
5821	5820	1	0.1426	334720.000
5822	5821	1	0.1157	543920.000
5823	5820	1	0.1426	334720.000
5824	5823	1	0.1157	543920.000
5825	5819	1	0.1360	284512.000
5826	5815	1	0.1510	265265.600
5827	5826	1	0.1510	265265.600
5828	5827	1	0.1400	392459.200
5829	5828	1	0.1400	392459.200
5830	5829	1	0.1400	392459.200
5831	5830	1	0.1400	392459.200
5832	5827	1	0.1400	392459.200
5833	5826	1	0.1529	224262.400
5834	5833	1	0.1360	307105.600
5835	5833	1	0.1360	307105.600
5836	5833	1	0.1360	307105.600
5837	5811	1	0.1510	265265.600
5838	5837	1	0.1529	224262.400
5839	5838	1	0.1529	224262.400
5840	5838	1	0.1529	224262.400
5841	5809	1	0.1510	265265.600
5842	5806	1	0.1400	392459.200
5843	5803	1	0.1400	392459.200
5844	5785	1	0.1090	284512.000
5845	5785	1	0.1090	284512.000
5846	5785	1	0.1090	284512.000
5847	5787	1	0.1090	284512.000
5848	5787	1	0.1090	284512.000
5849	5788	1	0.1090	284512.000
5850	5788	1	0.1090	284512.000
5851	5791	1	0.1080	307105.600
5852	5792	1	0.1080	307105.600
5853	5795	1	0.1080	307105.600
5854	5796	1	0.1080	307105.600
5855	5798	1	0.14	0.0
5856	5799	1	0.1080	307105.600
5857	5800	1	0.1080	307105.600
5858	5801	1	0.1080	307105.600
5859	5802	1	0.1080	307105.600
5860	5804	1	0.1080	307105.600
5861	5805	1	0.1080	307105.600
5862	5807	1	0.1080	284512.000
5863	5808	1	0.1080	284512.000
5864	5810	1	0.1050	345196.736
5865	5812	1	0.1080	284512.000
5866	5813	1	0.1080	284512.000
5867	5814	1	0.1080	284512.000
5868	5828	1	0.1080	307105.600
5869	5829	1	0.1080	307105.600
5870	5830	1	0.1080	307105.600
5871	5831	1	0.1080	307105.600
5872	5832	1	0.1080	307105.600
5873	5837	1	0.1090	284512.000
5874	5837	1	0.1090	284512.000
5875	5839	1	0.1090	284512.000
5876	5839	1	0.1090	284512.000
5877	5839	1	0.1090	284512.000
5878	5840	1	0.1090	284512.000
5879	5840	1	0.1090	284512.000
5880	5840	1	0.1090	284512.000
5881	5841	1	0.1090	284512.000
5882	5841	1	0.1090	284512.000
5883	5842	1	0.1080	307105.600
5884	5843	1	0.1080	307105.600
5800	5799	1	0.1400	392459.200
5802	5801	1	0.1400	392459.200
5826	5825	1	0.1410	267776.000
5832	5831	1	0.1400	392459.200
5841	5838	1	0.1529	224262.400
5843	5842	1	0.1400	392459.200
5886	5885	1	0.1448	319657.600
5887	5886	1	0.1448	319657.600
5888	5887	1	0.1529	224262.400
5889	5888	1	0.1410	267776.000
5890	5889	1	0.1364	376560.000
5891	5890	1	0.1400	392459.200
5892	5891	1	0.1400	392459.200
5893	5892	1	0.1400	392459.200
5894	5893	1	0.1460	322168.000
5895	5894	1	0.1400	392459.200
5896	5895	1	0.1400	392459.200
5897	5896	1	0.1400	392459.200
5898	5897	1	0.14	0.0
5899	5897	1	0.1400	392459.200
5900	5894	1	0.1400	392459.200
5901	5893	1	0.1400	392459.200
5902	5890	1	0.1400	392459.200
5903	5886	1	0.1340	402500.800
5904	5903	1	0.1400	392459.200
5905	5904	1	0.1400	392459.200
5906	5905	1	0.1400	392459.200
5907	5906	1	0.1433	357313.600
5908	5907	1	0.1345	459403.200
5909	5908	1	0.1345	459403.200
5910	5909	1	0.1345	459403.200
5911	5910	1	0.1345	459403.200
5912	5911	1	0.1345	459403.200
5913	5912	1	0.1345	459403.200
5914	5913	1	0.1345	459403.200
5915	5914	1	0.1433	357313.600
5916	5915	1	0.1340	459403.200
5917	5916	1	0.1426	334720.000
5918	5917	1	0.1157	543920.000
5919	5916	1	0.1365	459403.200
5920	5919	1	0.1367	456892.800
5921	5920	1	0.1426	334720.000
5922	5921	1	0.1157	543920.000
5923	5920	1	0.1426	334720.000
5924	5923	1	0.1157	543920.000
5925	5919	1	0.1360	284512.000
5926	5915	1	0.1510	265265.600
5927	5926	1	0.1510	265265.600
5928	5927	1	0.1400	392459.200
5929	5928	1	0.1400	392459.200
5930	5929	1	0.1400	392459.200
5931	5930	1	0.1400	392459.200
5932	5927	1	0.1400	392459.200
5933	5926	1	0.1529	224262.400
5934	5933	1	0.1360	307105.600
5935	5933	1	0.1360	307105.600
5936	5933	1	0.1360	307105.600
5937	5911	1	0.1510	265265.600
5938	5937	1	0.1529	224262.400
5939	5938	1	0.1529	224262.400
5940	5938	1	0.1529	224262.400
5941	5909	1	0.1510	265265.600
5942	5906	1	0.1400	392459.200
5943	5903	1	0.1400	392459.200
5944	5885	1	0.1090	284512.000
5945	5885	1	0.1090	284512.000
5946	5885	1	0.1090	284512.000
5947	5887	1	0.1090	284512.000
5948	5887	1	0.1090	284512.000
5949	5888	1	0.1090	284512.000
5950	5888	1	0.1090	284512.000
5951	5891	1	0.1080	307105.600
5952	5892	1	0.1080	307105.600
5953	5895	1	0.1080	307105.600
5954	5896	1	0.1080	307105.600
5955	5898	1	0.14	0.0
5956	5899	1	0.1080	307105.600
5957	5900	1	0.1080	307105.600
5958	5901	1	0.1080	307105.600
5959	5902	1	0.1080	307105.600
5960	5904	1	0.1080	307105.600
5961	5905	1	0.1080	307105.600
5962	5907	1	0.1080	284512.000
5963	5908	1	0.1080	284512.000
5964	5910	1	0.1050	345196.736
5965	5912	1	0.1080	284512.000
5966	5913	1	0.1080	284512.000
5967	5914	1	0.1080	284512.000
5968	5928	1	0.1080	307105.600
5969	5929	1	0.1080	307105.600
5970	5930	1	0.1080	307105.600
5971	5931	1	0.1080	307105.600
5972	5932	1	0.1080	307105.600
5973	5937	1	0.1090	284512.000
5974	5937	1	0.1090	284512.000
5975	5939	1	0.1090	284512.000
5976	5939	1	0.1090	284512.000
5977	5939	1	0.1090	284512.000
5978	5940	1	0.1090	284512.000
5979	5940	1	0.1090	284512.000
5980	5940	1	0.1090	284512.000
5981	5941	1	0.1090	284512.000
5982	5941	1	0.1090	284512.000
5983	5942	1	0.1080	307105.600
5984	5943	1	0.1080	307105.600
5900	5899	1	0.1400	392459.200
5902	5901	1	0.1400	392459.200
5926	5925	1	0.1410	267776.000
5932	5931	1	0.1400	392459.200
5941	5938	1	0.1529	224262.400
5943	5942	1	0.1400	392459.200
5986	5985	1	0.1448	319657.600
5987	5986	1	0.1448	319657.600
5988	5987	1	0.1529	224262.400
5989	5988	1	0.1410	267776.000
5990	5989	1	0.1364	376560.000
5991	5990	1	0.1400	392459.200
5992	5991	1	0.1400	392459.200
5993	5992	1	0.1400	392459.200
5994	5993	1	0.1460	322168.000
5995	5994	1	0.1400	392459.200
5996	5995	1	0.1400	392459.200
5997	5996	1	0.1400	392459.200
5998	5997	1	0.14	0.0
5999	5997	1	0.1400	392459.200
6000	5994	1	0.1400	392459.200
6001	5993	1	0.1400	392459.200
6002	5990	1	0.1400	392459.200
6003	5986	1	0.1340	402500.800
6004	6003	1	0.1400	392459.200
6005	6004	1	0.1400	392459.200
6006	6005	1	0.1400	392459.200
6007	6006	1	0.1433	357313.600
6008	6007	1	0.1345	459403.200
6009	6008	1	0.1345	459403.200
6010	6009	1	0.1345	459403.200
6011	6010	1	0.1345	459403.200
6012	6011	1	0.1345	459403.200
6013	6012	1	0.1345	459403.200
6014	6013	1	0.1345	459403.200
6015	6014	1	0.1433	357313.600
6016	6015	1	0.1340	459403.200
6017	6016	1	0.1426	334720.000
6018	6017	1	0.1157	543920.000
6019	6016	1	0.1365	459403.200
6020	6019	1	0.1367	456892.800
6021	6020	1	0.1426	334720.000
6022	6021	1	0.1157	543920.000
6023	6020	1	0.1426	334720.000
6024	6023	1	0.1157	543920.000
6025	6019	1	0.1360	284512.000
6026	6015	1	0.1510	265265.600
6027	6026	1	0.1510	265265.600
6028	6027	1	0.1400	392459.200
6029	6028	1	0.1400	392459.200
6030	6029	1	0.1400	392459.200
6031	6030	1	0.1400	392459.200
6032	6027	1	0.1400	392459.200
6033	6026	1	0.1529	224262.400
6034	6033	1	0.1360	307105.600
6035	6033	1	0.1360	307105.600
6036	6033	1	0.1360	307105.600
6037	6011	1	0.1510	265265.600
6038	6037	1	0.1529	224262.400
6039	6038	1	0.1529	224262.400
6040	6038	1	0.1529	224262.400
6041	6009	1	0.1510	265265.600
6042	6006	1	0.1400	392459.200
6043	6003	1	0.1400	392459.200
6044	5985	1	0.1090	284512.000
6045	5985	1	0.1090	284512.000
6046	5985	1	0.1090	284512.000
6047	5987	1	0.1090	284512.000
6048	5987	1	0.1090	284512.000
6049	5988	1	0.1090	284512.000
6050	5988	1	0.1090	284512.000
6051	5991	1	0.1080	307105.600
6052	5992	1	0.1080	307105.600
6053	5995	1	0.1080	307105.600
6054	5996	1	0.1080	307105.600
6055	5998	1	0.14	0.0
6056	5999	1	0.1080	307105.600
6057	6000	1	0.1080	307105.600
6058	6001	1	0.1080	307105.600
6059	6002	1	0.1080	307105.600
6060	6004	1	0.1080	307105.600
6061	6005	1	0.1080	307105.600
6062	6007	1	0.1080	284512.000
6063	6008	1	0.1080	284512.000
6064	6010	1	0.1050	345196.736
6065	6012	1	0.1080	284512.000
6066	6013	1	0.1080	284512.000
6067	6014	1	0.1080	284512.000
6068	6028	1	0.1080	307105.600
6069	6029	1	0.1080	307105.600
6070	6030	1	0.1080	307105.600
6071	6031	1	0.1080	307105.600
6072	6032	1	0.1080	307105.600
6073	6037	1	0.1090	284512.000
6074	6037	1	0.1090	284512.000
6075	6039	1	0.1090	284512.000
6076	6039	1	0.1090	284512.000
6077	6039	1	0.1090	284512.000
6078	6040	1	0.1090	284512.000
6079	6040	1	0.1090	284512.000
6080	6040	1	0.1090	284512.000
6081	6041	1	0.1090	284512.000
6082	6041	1	0.1090	284512.000
6083	6042	1	0.1080	307105.600
6084	6043	1	0.1080	307105.600
6000	5999	1	0.1400	392459.200
6002	6001	1	0.1400	392459.200
6026	6025	1	0.1410	267776.000
6032	6031	1	0.1400	392459.200
6041	6038	1	0.1529	224262.400
6043	6042	1	0.1400	392459.200
6086	6085	1	0.1448	319657.600
6087	6086	1	0.1448	319657.600
6088	6087	1	0.1529	224262.400
6089	6088	1	0.1410	267776.000
6090	6089	1	0.1364	376560.000
6091	6090	1	0.1400	392459.200
6092	6091	1	0.1400	392459.200
6093	6092	1	0.1400	392459.200
6094	6093	1	0.1460	322168.000
6095	6094	1	0.1400	392459.200
6096	6095	1	0.1400	392459.200
6097	6096	1	0.1400	392459.200
6098	6097	1	0.14	0.0
6099	6097	1	0.1400	392459.200
6100	6094	1	0.1400	392459.200
6101	6093	1	0.1400	392459.200
6102	6090	1	0.1400	392459.200
6103	6086	1	0.1340	402500.800
6104	6103	1	0.1400	392459.200
6105	6104	1	0.1400	392459.200
6106	6105	1	0.1400	392459.200
6107	6106	1	0.1433	357313.600
6108	6107	1	0.1345	459403.200
6109	6108	1	0.1345	459403.200
6110	6109	1	0.1345	459403.200
6111	6110	1	0.1345	459403.200
6112	6111	1	0.1345	459403.200
6113	6112	1	0.1345	459403.200
6114	6113	1	0.1345	459403.200
6115	6114	1	0.1433	357313.600
6116	6115	1	0.1340	459403.200
6117	6116	1	0.1426	334720.000
6118	6117	1	0.1157	543920.000
6119	6116	1	0.1365	459403.200
6120	6119	1	0.1367	456892.800
6121	6120	1	0.1426	334720.000
6122	6121	1	0.1157	543920.000
6123	6120	1	0.1426	334720.000
6124	6123	1	0.1157	543920.000
6125	6119	1	0.1360	284512.000
6126	6115	1	0.1510	265265.600
6127	6126	1	0.1510	265265.600
6128	6127	1	0.1400	392459.200
6129	6128	1	0.1400	392459.200
6130	6129	1	0.1400	392459.200
6131	6130	1	0.1400	392459.200
6132	6127	1	0.1400	392459.200
6133	6126	1	0.1529	224262.400
6134	6133	1	0.1360	307105.600
6135	6133	1	0.1360	307105.600
6136	6133	1	0.1360	307105.600
6137	6111	1	0.1510	265265.600
6138	6137	1	0.1529	224262.400
6139	6138	1	0.1529	224262.400
6140	6138	1	0.1529	224262.400
6141	6109	1	0.1510	265265.600
6142	6106	1	0.1400	392459.200
6143	6103	1	0.1400	392459.200
6144	6085	1	0.1090	284512.000
6145	6085	1	0.1090	284512.000
6146	6085	1	0.1090	284512.000
6147	6087	1	0.1090	284512.000
6148	6087	1	0.1090	284512.000
6149	6088	1	0.1090	284512.000
6150	6088	1	0.1090	284512.000
6151	6091	1	0.1080	307105.600
6152	6092	1	0.1080	307105.600
6153	6095	1	0.1080	307105.600
6154	6096	1	0.1080	307105.600
6155	6098	1	0.14	0.0
6156	6099	1	0.1080	307105.600
6157	6100	1	0.1080	307105.600
6158	6101	1	0.1080	307105.600
6159	6102	1	0.1080	307105.600
6160	6104	1	0.1080	307105.600
6161	6105	1	0.1080	307105.600
6162	6107	1	0.1080	284512.000
6163	6108	1	0.1080	284512.000
6164	6110	1	0.1050	345196.736
6165	6112	1	0.1080	284512.000
6166	6113	1	0.1080	284512.000
6167	6114	1	0.1080	284512.000
6168	6128	1	0.1080	307105.600
6169	6129	1	0.1080	307105.600
6170	6130	1	0.1080	307105.600
6171	6131	1	0.1080	307105.600
6172	6132	1	0.1080	307105.600
6173	6137	1	0.1090	284512.000
6174	6137	1	0.1090	284512.000
6175	6139	1	0.1090	284512.000
6176	6139	1	0.1090	284512.000
6177	6139	1	0.1090	284512.000
6178	6140	1	0.1090	284512.000
6179	6140	1	0.1090	284512.000
6180	6140	1	0.1090	284512.000
6181	6141	1	0.1090	284512.000
6182	6141	1	0.1090	284512.000
6183	6142	1	0.1080	307105.600
6184	6143	1	0.1080	307105.600
6100	6099	1	0.1400	392459.200
6102	6101	1	0.1400	392459.200
6126	6125	1	0.1410	267776.000
6132	6131	1	0.1400	392459.200
6141	6138	1	0.1529	224262.400
6143	6142	1	0.1400	392459.200
6186	6185	1	0.1448	319657.600
6187	6186	1	0.1448	319657.600
6188	6187	1	0.1529	224262.400
6189	6188	1	0.1410	267776.000
6190	6189	1	0.1364	376560.000
6191	6190	1	0.1400	392459.200
6192	6191	1	0.1400	392459.200
6193	6192	1	0.1400	392459.200
6194	6193	1	0.1460	322168.000
6195	6194	1	0.1400	392459.200
6196	6195	1	0.1400	392459.200
6197	6196	1	0.1400	392459.200
6198	6197	1	0.14	0.0
6199	6197	1	0.1400	392459.200
6200	6194	1	0.1400	392459.200
6201	6193	1	0.1400	392459.200
6202	6190	1	0.1400	392459.200
6203	6186	1	0.1340	402500.800
6204	6203	1	0.1400	392459.200
6205	6204	1	0.1400	392459.200
6206	6205	1	0.1400	392459.200
6207	6206	1	0.1433	357313.600
6208	6207	1	0.1345	459403.200
6209	6208	1	0.1345	459403.200
6210	6209	1	0.1345	459403.200
6211	6210	1	0.1345	459403.200
6212	6211	1	0.1345	459403.200
6213	6212	1	0.1345	459403.200
6214	6213	1	0.1345	459403.200
6215	6214	1	0.1433	357313.600
6216	6215	1	0.1340	459403.200
6217	6216	1	0.1426	334720.000
6218	6217	1	0.1157	543920.000
6219	6216	1	0.1365	459403.200
6220	6219	1	0.1367	456892.800
6221	6220	1	0.1426	334720.000
6222	6221	1	0.1157	543920.000
6223	6220	1	0.1426	334720.000
6224	6223	1	0.1157	543920.000
6225	6219	1	0.1360	284512.000
6226	6215	1	0.1510	265265.600
6227	6226	1	0.1510	265265.600
6228	6227	1	0.1400	392459.200
6229	6228	1	0.1400	392459.200
6230	6229	1	0.1400	392459.200
6231	6230	1	0.1400	392459.200
6232	6227	1	0.1400	392459.200
6233	6226	1	0.1529	224262.400
6234	6233	1	0.1360	307105.600
6235	6233	1	0.1360	307105.600
6236	6233	1	0.1360	307105.600
6237	6211	1	0.1510	265265.600
6238	6237	1	0.1529	224262.400
6239	6238	1	0.1529	224262.400
6240	6238	1	0.1529	224262.400
6241	6209	1	0.1510	265265.600
6242	6206	1	0.1400	392459.200
6243	6203	1	0.1400	392459.200
6244	6185	1	0.1090	284512.000
6245	6185	1	0.1090	284512.000
6246	6185	1	0.1090	284512.000
6247	6187	1	0.1090	284512.000
6248	6187	1	0.1090	284512.000
6249	6188	1	0.1090	284512.000
6250	6188	1	0.1090	284512.000
6251	6191	1	0.1080	307105.600
6252	6192	1	0.1080	307105.600
6253	6195	1	0.1080	307105.600
6254	6196	1	0.1080	307105.600
6255	6198	1	0.14	0.0
6256	6199	1	0.1080	307105.600
6257	6200	1	0.1080	307105.600
6258	6201	1	0.1080	307105.600
6259	6202	1	0.1080	307105.600
6260	6204	1	0.1080	307105.600
6261	6205	1	0.1080	307105.600
6262	6207	1	0.1080	284512.000
6263	6208	1	0.1080	284512.000
6264	6210	1	0.1050	345196.736
6265	6212	1	0.1080	284512.000
6266	6213	1	0.1080	284512.000
6267	6214	1	0.1080	284512.000
6268	6228	1	0.1080	307105.600
6269	6229	1	0.1080	307105.600
6270	6230	1	0.1080	307105.600
6271	6231	1	0.1080	307105.600
6272	6232	1	0.1080	307105.600
6273	6237	1	0.1090	284512.000
6274	6237	1	0.1090	284512.000
6275	6239	1	0.1090	284512.000
6276	6239	1	0.1090	284512.000
6277	6239	1	0.1090	284512.000
6278	6240	1	0.1090	284512.000
6279	6240	1	0.1090	284512.000
6280	6240	1	0.1090	284512.000
6281	6241	1	0.1090	284512.000
6282	6241	1	0.1090	284512.000
6283	6242	1	0.1080	307105.600
6284	6243	1	0.1080	307105.600
6200	6199	1	0.1400	392459.200
6202	6201	1	0.1400	392459.200
6226	6225	1	0.1410	267776.000
6232	6231	1	0.1400	392459.200
6241	6238	1	0.1529	224262.400
6243	6242	1	0.1400	392459.200
6286	6285	1	0.1448	319657.600
6287	6286	1	0.1448	319657.600
6288	6287	1	0.1529	224262.400
6289	6288	1	0.1410	267776.000
6290	6289	1	0.1364	376560.000
6291	6290	1	0.1400	392459.200
6292	6291	1	0.1400	392459.200
6293	6292	1	0.1400	392459.200
6294	6293	1	0.1460	322168.000
6295	6294	1	0.1400	392459.200
6296	6295	1	0.1400	392459.200
6297	6296	1	0.1400	392459.200
6298	6297	1	0.14	0.0
6299	6297	1	0.1400	392459.200
6300	6294	1	0.1400	392459.200
6301	6293	1	0.1400	392459.200
6302	6290	1	0.1400	392459.200
6303	6286	1	0.1340	402500.800
6304	6303	1	0.1400	392459.200
6305	6304	1	0.1400	392459.200
6306	6305	1	0.1400	392459.200
6307	6306	1	0.1433	357313.600
6308	6307	1	0.1345	459403.200
6309	6308	1	0.1345	459403.200
6310	6309	1	0.1345	459403.200
6311	6310	1	0.1345	459403.200
6312	6311	1	0.1345	459403.200
6313	6312	1	0.1345	459403.200
6314	6313	1	0.1345	459403.200
6315	6314	1	0.1433	357313.600
6316	6315	1	0.1340	459403.200
6317	6316	1	0.1426	334720.000
6318	6317	1	0.1157	543920.000
6319	6316	1	0.1365	459403.200
6320	6319	1	0.1367	456892.800
6321	6320	1	0.1426	334720.000
6322	6321	1	0.1157	543920.000
6323	6320	1	0.1426	334720.000
6324	6323	1	0.1157	543920.000
6325	6319	1	0.1360	284512.000
6326	6315	1	0.1510	265265.600
6327	6326	1	0.1510	265265.600
6328	6327	1	0.1400	392459.200
6329	6328	1	0.1400	392459.200
6330	6329	1	0.1400	392459.200
6331	6330	1	0.1400	392459.200
6332	6327	1	0.1400	392459.200
6333	6326	1	0.1529	224262.400
6334	6333	1	0.1360	307105.600
6335	6333	1	0.1360	307105.600
6336	6333	1	0.1360	307105.600
6337	6311	1	0.1510	265265.600
6338	6337	1	0.1529	224262.400
6339	6338	1	0.1529	224262.400
6340	6338	1	0.1529	224262.400
6341	6309	1	0.1510	265265.600
6342	6306	1	0.1400	392459.200
6343	6303	1	0.1400	392459.200
6344	6285	1	0.1090	284512.000
6345	6285	1	0.1090	284512.000
6346	6285	1	0.1090	284512.000
6347	6287	1	0.1090	284512.000
6348	6287	1	0.1090	284512.000
6349	6288	1	0.1090	284512.000
6350	6288	1	0.1090	284512.000
6351	6291	1	0.1080	307105.600
6352	6292	1	0.1080	307105.600
6353	6295	1	0.1080	307105.600
6354	6296	1	0.1080	307105.600
6355	6298	1	0.14	0.0
6356	6299	1	0.1080	307105.600
6357	6300	1	0.1080	307105.600
6358	6301	1	0.1080	307105.600
6359	6302	1	0.1080	307105.600
6360	6304	1	0.1080	307105.600
6361	6305	1	0.1080	307105.600
6362	6307	1	0.1080	284512.000
6363	6308	1	0.1080	284512.000
6364	6310	1	0.1050	345196.736
6365	6312	1	0.1080	284512.000
6366	6313	1	0.1080	284512.000
6367	6314	1	0.1080	284512.000
6368	6328	1	0.1080	307105.600
6369	6329	1	0.1080	307105.600
6370	6330	1	0.1080	307105.600
6371	6331	1	0.1080	307105.600
6372	6332	1	0.1080	307105.600
6373	6337	1	0.1090	284512.000
6374	6337	1	0.1090	284512.000
6375	6339	1	0.1090	284512.000
6376	6339	1	0.1090	284512.000
6377	6339	1	0.1090	284512.000
6378	6340	1	0.1090	284512.000
6379	6340	1	0.1090	284512.000
6380	6340	1	0.1090	284512.000
6381	6341	1	0.1090	284512.000
6382	6341	1	0.1090	284512.000
6383	6342	1	0.1080	307105.600
6384	6343	1	0.1080	307105.600
6300	6299	1	0.1400	392459.200
6302	6301	1	0.1400	392459.200
6326	6325	1	0.1410	267776.000
6332	6331	1	0.1400	392459.200
6341	6338	1	0.1529	224262.400
6343	6342	1	0.1400	392459.200
6386	6385	1	0.1448	319657.600
6387	6386	1	0.1448	319657.600
6388	6387	1	0.1529	224262.400
6389	6388	1	0.1410	267776.000
6390	6389	1	0.1364	376560.000
6391	6390	1	0.1400	392459.200
6392	6391	1	0.1400	392459.200
6393	6392	1	0.1400	392459.200
6394	6393	1	0.1460	322168.000
6395	6394	1	0.1400	392459.200
6396	6395	1	0.1400	392459.200
6397	6396	1	0.1400	392459.200
6398	6397	1	0.14	0.0
6399	6397	1	0.1400	392459.200
6400	6394	1	0.1400	392459.200
6401	6393	1	0.1400	392459.200
6402	6390	1	0.1400	392459.200
6403	6386	1	0.1340	402500.800
6404	6403	1	0.1400	392459.200
6405	6404	1	0.1400	392459.200
6406	6405	1	0.1400	392459.200
6407	6406	1	0.1433	357313.600
6408	6407	1	0.1345	459403.200
6409	6408	1	0.1345	459403.200
6410	6409	1	0.1345	459403.200
6411	6410	1	0.1345	459403.200
6412	6411	1	0.1345	459403.200
6413	6412	1	0.1345	459403.200
6414	6413	1	0.1345	459403.200
6415	6414	1	0.1433	357313.600
6416	6415	1	0.1340	459403.200
6417	6416	1	0.1426	334720.000
6418	6417	1	0.1157	543920.000
6419	6416	1	0.1365	459403.200
6420	6419	1	0.1367	456892.800
6421	6420	1	0.1426	334720.000
6422	6421	1	0.1157	543920.000
6423	6420	1	0.1426	334720.000
6424	6423	1	0.1157	543920.000
6425	6419	1	0.1360	284512.000
6426	6415	1	0.1510	265265.600
6427	6426	1	0.1510	265265.600
6428	6427	1	0.1400	392459.200
6429	6428	1	0.1400	392459.200
6430	6429	1	0.1400	392459.200
6431	6430	1	0.1400	392459.200
6432	6427	1	0.1400	392459.200
6433	6426	1	0.1529	224262.400
6434	6433	1	0.1360	307105.600
6435	6433	1	0.1360	307105.600
6436	6433	1	0.1360	307105.600
6437	6411	1	0.1510	265265.600
6438	6437	1	0.1529	224262.400
6439	6438	1	0.1529	224262.400
6440	6438	1	0.1529	224262.400
6441	6409	1	0.1510	265265.600
6442	6406	1	0.1400	392459.200
6443	6403	1	0.1400	392459.200
6444	6385	1	0.1090	284512.000
6445	6385	1	0.1090	284512.000
6446	6385	1	0.1090	284512.000
6447	6387	1	0.1090	284512.000
6448	6387	1	0.1090	284512.000
6449	6388	1	0.1090	284512.000
6450	6388	1	0.1090	284512.000
6451	6391	1	0.1080	307105.600
6452	6392	1	0.1080	307105.600
6453	6395	1	0.1080	307105.600
6454	6396	1	0.1080	307105.600
6455	6398	1	0.14	0.0
6456	6399	1	0.1080	307105.600
6457	6400	1	0.1080	307105.600
6458	6401	1	0.1080	307105.600
6459	6402	1	0.1080	307105.600
6460	6404	1	0.1080	307105.600
6461	6405	1	0.1080	307105.600
6462	6407	1	0.1080	284512.000
6463	6408	1	0.1080	284512.000
6464	6410	1	0.1050	345196.736
6465	6412	1	0.1080	284512.000
6466	6413	1	0.1080	284512.000
6467	6414	1	0.1080	284512.000
6468	6428	1	0.1080	307105.600
6469	6429	1	0.1080	307105.600
6470	6430	1	0.1080	307105.600
6471	6431	1	0.1080	307105.600
6472	6432	1	0.1080	307105.600
6473	6437	1	0.1090	284512.000
6474	6437	1	0.1090	284512.000
6475	6439	1	0.1090	284512.000
6476	6439	1	0.1090	284512.000
6477	6439	1	0.1090	284512.000
6478	6440	1	0.1090	284512.000
6479	6440	1	0.1090	284512.000
6480	6440	1	0.1090	284512.000
6481	6441	1	0.1090	284512.000
6482	6441	1	0.1090	284512.000
6483	6442	1	0.1080	307105.600
6484	6443	1	0.1080	307105.600
6400	6399	1	0.1400	392459.200
6402	6401	1	0.1400	392459.200
6426	6425	1	0.1410	267776.000
6432	6431	1	0.1400	392459.200
6441	6438	1	0.1529	224262.400
6443	6442	1	0.1400	392459.200
6486	6485	1	0.1448	319657.600
6487	6486	1	0.1448	319657.600
6488	6487	1	0.1529	224262.400
6489	6488	1	0.1410	267776.000
6490	6489	1	0.1364	376560.000
6491	6490	1	0.1400	392459.200
6492	6491	1	0.1400	392459.200
6493	6492	1	0.1400	392459.200
6494	6493	1	0.1460	322168.000
6495	6494	1	0.1400	392459.200
6496	6495	1	0.1400	392459.200
6497	6496	1	0.1400	392459.200
6498	6497	1	0.14	0.0
6499	6497	1	0.1400	392459.200
6500	6494	1	0.1400	392459.200
6501	6493	1	0.1400	392459.200
6502	6490	1	0.1400	392459.200
6503	6486	1	0.1340	402500.800
6504	6503	1	0.1400	392459.200
6505	6504	1	0.1400	392459.200
6506	6505	1	0.1400	392459.200
6507	6506	1	0.1433	357313.600
6508	6507	1	0.1345	459403.200
6509	6508	1	0.1345	459403.200
6510	6509	1	0.1345	459403.200
6511	6510	1	0.1345	459403.200
6512	6511	1	0.1345	459403.200
6513	6512	1	0.1345	459403.200
6514	6513	1	0.1345	459403.200
6515	6514	1	0.1433	357313.600
6516	6515	1	0.1340	459403.200
6517	6516	1	0.1426	334720.000
6518	6517	1	0.1157	543920.000
6519	6516	1	0.1365	459403.200
6520	6519	1	0.1367	456892.800
6521	6520	1	0.1426	334720.000
6522	6521	1	0.1157	543920.000
6523	6520	1	0.1426	334720.000
6524	6523	1	0.1157	543920.000
6525	6519	1	0.1360	284512.000
6526	6515	1	0.1510	265265.600
6527	6526	1	0.1510	265265.600
6528	6527	1	0.1400	392459.200
6529	6528	1	0.1400	392459.200
6530	6529	1	0.1400	392459.200
6531	6530	1	0.1400	392459.200
6532	6527	1	0.1400	392459.200
6533	6526	1	0.1529	224262.400
6534	6533	1	0.1360	307105.600
6535	6533	1	0.1360	307105.600
6536	6533	1	0.1360	307105.600
6537	6511	1	0.1510	265265.600
6538	6537	1	0.1529	224262.400
6539	6538	1	0.1529	224262.400
6540	6538	1	0.1529	224262.400
6541	6509	1	0.1510	265265.600
6542	6506	1	0.1400	392459.200
6543	6503	1	0.1400	392459.200
6544	6485	1	0.1090	284512.000
6545	6485	1	0.1090	284512.000
6546	6485	1	0.1090	284512.000
6547	6487	1	0.1090	284512.000
6548	6487	1	0.1090	284512.000
6549	6488	1	0.1090	284512.000
6550	6488	1	0.1090	284512.000
6551	6491	1	0.1080	307105.600
6552	6492	1	0.1080	307105.600
6553	6495	1	0.1080	307105.600
6554	6496	1	0.1080	307105.600
6555	6498	1	0.14	0.0
6556	6499	1	0.1080	307105.600
6557	6500	1	0.1080	307105.600
6558	6501	1	0.1080	307105.600
6559	6502	1	0.1080	307105.600
6560	6504	1	0.1080	307105.600
6561	6505	1	0.1080	307105.600
6562	6507	1	0.1080	284512.000
6563	6508	1	0.1080	284512.000
6564	6510	1	0.1050	345196.736
6565	6512	1	0.1080	284512.000
6566	6513	1	0.1080	284512.000
6567	6514	1	0.1080	284512.000
6568	6528	1	0.1080	307105.600
6569	6529	1	0.1080	307105.600
6570	6530	1	0.1080	307105.600
6571	6531	1	0.1080	307105.600
6572	6532	1	0.1080	307105.600
6573	6537	1	0.1090	284512.000
6574	6537	1	0.1090	284512.000
6575	6539	1	0.1090	284512.000
6576	6539	1	0.1090	284512.000
6577	6539	1	0.1090	284512.000
6578	6540	1	0.1090	284512.000
6579	6540	1	0.1090	284512.000
6580	6540	1	0.1090	284512.000
6581	6541	1	0.1090	284512.000
6582	6541	1	0.1090	284512.000
6583	6542	1	0.1080	307105.600
6584	6543	1	0.1080	307105.600
6500	6499	1	0.1400	392459.200
6502	6501	1	0.1400	392459.200
6526	6525	1	0.1410	267776.000
6532	6531	1	0.1400	392459.200
6541	6538	1	0.1529	224262.400
6543	6542	1	0.1400	392459.200
6586	6585	1	0.1448	319657.600
6587	6586	1	0.1448	319657.600
6588	6587	1	0.1529	224262.400
6589	6588	1	0.1410	267776.000
6590	6589	1	0.1364	376560.000
6591	6590	1	0.1400	392459.200
6592	6591	1	0.1400	392459.200
6593	6592	1	0.1400	392459.200
6594	6593	1	0.1460	322168.000
6595	6594	1	0.1400	392459.200
6596	6595	1	0.1400	392459.200
6597	6596	1	0.1400	392459.200
6598	6597	1	0.14	0.0
6599	6597	1	0.1400	392459.200
6600	6594	1	0.1400	392459.200
6601	6593	1	0.1400	392459.200
6602	6590	1	0.1400	392459.200
6603	6586	1	0.1340	402500.800
6604	6603	1	0.1400	392459.200
6605	6604	1	0.1400	392459.200
6606	6605	1	0.1400	392459.200
6607	6606	1	0.1433	357313.600
6608	6607	1	0.1345	459403.200
6609	6608	1	0.1345	459403.200
6610	6609	1	0.1345	459403.200
6611	6610	1	0.1345	459403.200
6612	6611	1	0.1345	459403.200
6613	6612	1	0.1345	459403.200
6614	6613	1	0.1345	459403.200
6615	6614	1	0.1433	357313.600
6616	6615	1	0.1340	459403.200
6617	6616	1	0.1426	334720.000
6618	6617	1	0.1157	543920.000
6619	6616	1	0.1365	459403.200
6620	6619	1	0.1367	456892.800
6621	6620	1	0.1426	334720.000
6622	6621	1	0.1157	543920.000
6623	6620	1	0.1426	334720.000
6624	6623	1	0.1157	543920.000
6625	6619	1	0.1360	284512.000
6626	6615	1	0.1510	265265.600
6627	6626	1	0.1510	265265.600
6628	6627	1	0.1400	392459.200
6629	6628	1	0.1400	392459.200
6630	6629	1	0.1400	392459.200
6631	6630	1	0.1400	392459.200
6632	6627	1	0.1400	392459.200
6633	6626	1	0.1529	224262.400
6634	6633	1	0.1360	307105.600
6635	6633	1	0.1360	307105.600
6636	6633	1	0.1360	307105.600
6637	6611	1	0.1510	265265.600
6638	6637	1	0.1529	224262.400
6639	6638	1	0.1529	224262.400
6640	6638	1	0.1529	224262.400
6641	6609	1	0.1510	265265.600
6642	6606	1	0.1400	392459.200
6643	6603	1	0.1400	392459.200
6644	6585	1	0.1090	284512.000
6645	6585	1	0.1090	284512.000
6646	6585	1	0.1090	284512.000
6647	6587	1	0.1090	284512.000
6648	6587	1	0.1090	284512.000
6649	6588	1	0.1090	284512.000
6650	6588	1	0.1090	284512.000
6651	6591	1	0.1080	307105.600
6652	6592	1	0.1080	307105.600
6653	6595	1	0.1080	307105.600
6654	6596	1	0.1080	307105.600
6655	6598	1	0.14	0.0
6656	6599	1	0.1080	307105.600
6657	6600	1	0.1080	307105.600
6658	6601	1	0.1080	307105.600
6659	6602	1	0.1080	307105.600
6660	6604	1	0.1080	307105.600
6661	6605	1	0.1080	307105.600
6662	6607	1	0.1080	284512.000
6663	6608	1	0.1080	284512.000
6664	6610	1	0.1050	345196.736
6665	6612	1	0.1080	284512.000
6666	6613	1	0.1080	284512.000
6667	6614	1	0.1080	284512.000
6668	6628	1	0.1080	307105.600
6669	6629	1	0.1080	307105.600
6670	6630	1	0.1080	307105.600
6671	6631	1	0.1080	307105.600
6672	6632	1	0.1080	307105.600
6673	6637	1	0.1090	284512.000
6674	6637	1	0.1090	284512.000
6675	6639	1	0.1090	284512.000
6676	6639	1	0.1090	284512.000
6677	6639	1	0.1090	284512.000
6678	6640	1	0.1090	284512.000
6679	6640	1	0.1090	284512.000
6680	6640	1	0.1090	284512.000
6681	6641	1	0.1090	284512.000
6682	6641	1	0.1090	284512.000
6683	6642	1	0.1080	307105.600
6684	6643	1	0.1080	307105.600
6600	6599	1	0.1400	392459.200
6602	6601	1	0.1400	392459.200
6626	6625	1	0.1410	267776.000
6632	6631	1	0.1400	392459.200
6641	6638	1	0.1529	224262.400
6643	6642	1	0.1400	392459.200
6686	6685	1	0.1448	319657.600
6687	6686	1	0.1448	319657.600
6688	6687	1	0.1529	224262.400
6689	6688	1	0.1410	267776.000
6690	6689	1	0.1364	376560.000
6691	6690	1	0.1400	392459.200
6692	6691	1	0.1400	392459.200
6693	6692	1	0.1400	392459.200
6694	6693	1	0.1460	322168.000
6695	6694	1	0.1400	392459.200
6696	6695	1	0.1400	392459.200
6697	6696	1	0.1400	392459.200
6698	6697	1	0.14	0.0
6699	6697	1	0.1400	392459.200
6700	6694	1	0.1400	392459.200
6701	6693	1	0.1400	392459.200
6702	6690	1	0.1400	392459.200
6703	6686	1	0.1340	402500.800
6704	6703	1	0.1400	392459.200
6705	6704	1	0.1400	392459.200
6706	6705	1	0.1400	392459.200
6707	6706	1	0.1433	357313.600
6708	6707	1	0.1345	459403.200
6709	6708	1	0.1345	459403.200
6710	6709	1	0.1345	459403.200
6711	6710	1	0.1345	459403.200
6712	6711	1	0.1345	459403.200
6713	6712	1	0.1345	459403.200
6714	6713	1	0.1345	459403.200
6715	6714	1	0.1433	357313.600
6716	6715	1	0.1340	459403.200
6717	6716	1	0.1426	334720.000
6718	6717	1	0.1157	543920.000
6719	6716	1	0.1365	459403.200
6720	6719	1	0.1367	456892.800
6721	6720	1	0.1426	334720.000
6722	6721	1	0.1157	543920.000
6723	6720	1	0.1426	334720.000
6724	6723	1	0.1157	543920.000
6725	6719	1	0.1360	284512.000
6726	6715	1	0.1510	265265.600
6727	6726	1	0.1510	265265.600
6728	6727	1	0.1400	392459.200
6729	6728	1	0.1400	392459.200
6730	6729	1	0.1400	392459.200
6731	6730	1	0.1400	392459.200
6732	6727	1	0.1400	392459.200
6733	6726	1	0.1529	224262.400
6734	6733	1	0.1360	307105.600
6735	6733	1	0.1360	307105.600
6736	6733	1	0.1360	307105.600
6737	6711	1	0.1510	265265.600
6738	6737	1	0.1529	224262.400
6739	6738	1	0.1529	224262.400
6740	6738	1	0.1529	224262.400
6741	6709	1	0.1510	265265.600
6742	6706	1	0.1400	392459.200
6743	6703	1	0.1400	392459.200
6744	6685	1	0.1090	284512.000
6745	6685	1	0.1090	284512.000
6746	6685	1	0.1090	284512.000
6747	6687	1	0.1090	284512.000
6748	6687	1	0.1090	284512.000
6749	6688	1	0.1090	284512.000
6750	6688	1	0.1090	284512.000
6751	6691	1	0.1080	307105.600
6752	6692	1	0.1080	307105.600
6753	6695	1	0.1080	307105.600
6754	6696	1	0.1080	307105.600
6755	6698	1	0.14	0.0
6756	6699	1	0.1080	307105.600
6757	6700	1	0.1080	307105.600
6758	6701	1	0.1080	307105.600
6759	6702	1	0.1080	307105.600
6760	6704	1	0.1080	307105.600
6761	6705	1	0.1080	307105.600
6762	6707	1	0.1080	284512.000
6763	6708	1	0.1080	284512.000
6764	6710	1	0.1050	345196.736
6765	6712	1	0.1080	284512.000
6766	6713	1	0.1080	284512.000
6767	6714	1	0.1080	284512.000
6768	6728	1	0.1080	307105.600
6769	6729	1	0.1080	307105.600
6770	6730	1	0.1080	307105.600
6771	6731	1	0.1080	307105.600
6772	6732	1	0.1080	307105.600
6773	6737	1	0.1090	284512.000
6774	6737	1	0.1090	284512.000
6775	6739	1	0.1090	284512.000
6776	6739	1	0.1090	284512.000
6777	6739	1	0.1090	284512.000
6778	6740	1	0.1090	284512.000
6779	6740	1	0.1090	284512.000
6780	6740	1	0.1090	284512.000
6781	6741	1	0.1090	284512.000
6782	6741	1	0.1090	284512.000
6783	6742	1	0.1080	307105.600
6784	6743	1	0.1080	307105.600
6700	6699	1	0.1400	392459.200
6702	6701	1	0.1400	392459.200
6726	6725	1	0.1410	267776.000
6732	6731	1	0.1400	392459.200
6741	6738	1	0.1529	224262.400
6743	6742	1	0.1400	392459.200
6786	6785	1	0.1448	319657.600
6787	6786	1	0.1448	319657.600
6788	6787	1	0.1529	224262.400
6789	6788	1	0.1410	267776.000
6790	6789	1	0.1364	376560.000
6791	6790	1	0.1400	392459.200
6792	6791	1	0.1400	392459.200
6793	6792	1	0.1400	392459.200
6794	6793	1	0.1460	322168.000
6795	6794	1	0.1400	392459.200
6796	6795	1	0.1400	392459.200
6797	6796	1	0.1400	392459.200
6798	6797	1	0.14	0.0
6799	6797	1	0.1400	392459.200
6800	6794	1	0.1400	392459.200
6801	6793	1	0.1400	392459.200
6802	6790	1	0.1400	392459.200
6803	6786	1	0.1340	402500.800
6804	6803	1	0.1400	392459.200
6805	6804	1	0.1400	392459.200
6806	6805	1	0.1400	392459.200
6807	6806	1	0.1433	357313.600
6808	6807	1	0.1345	459403.200
6809	6808	1	0.1345	459403.200
6810	6809	1	0.1345	459403.200
6811	6810	1	0.1345	459403.200
6812	6811	1	0.1345	459403.200
6813	6812	1	0.1345	459403.200
6814	6813	1	0.1345	459403.200
6815	6814	1	0.1433	357313.600
6816	6815	1	0.1340	459403.200
6817	6816	1	0.1426	334720.000
6818	6817	1	0.1157	543920.000
6819	6816	1	0.1365	459403.200
6820	6819	1	0.1367	456892.800
6821	6820	1	0.1426	334720.000
6822	6821	1	0.1157	543920.000
6823	6820	1	0.1426	334720.000
6824	6823	1	0.1157	543920.000
6825	6819	1	0.1360	284512.000
6826	6815	1	0.1510	265265.600
6827	6826	1	0.1510	265265.600
6828	6827	1	0.1400	392459.200
6829	6828	1	0.1400	392459.200
6830	6829	1	0.1400	392459.200
6831	6830	1	0.1400	392459.200
6832	6827	1	0.1400	392459.200
6833	6826	1	0.1529	224262.400
6834	6833	1	0.1360	307105.600
6835	6833	1	0.1360	307105.600
6836	6833	1	0.1360	307105.600
6837	6811	1	0.1510	265265.600
6838	6837	1	0.1529	224262.400
6839	6838	1	0.1529	224262.400
6840	6838	1	0.1529	224262.400
6841	6809	1	0.1510	265265.600
6842	6806	1	0.1400	392459.200
6843	6803	1	0.1400	392459.200
6844	6785	1	0.1090	284512.000
6845	6785	1	0.1090	284512.000
6846	6785	1	0.1090	284512.000
6847	6787	1	0.1090	284512.000
6848	6787	1	0.1090	284512.000
6849	6788	1	0.1090	284512.000
6850	6788	1	0.1090	284512.000
6851	6791	1	0.1080	307105.600
6852	6792	1	0.1080	307105.600
6853	6795	1	0.1080	307105.600
6854	6796	1	0.1080	307105.600
6855	6798	1	0.14	0.0
6856	6799	1	0.1080	307105.600
6857	6800	1	0.1080	307105.600
6858	6801	1	0.1080	307105.600
6859	6802	1	0.1080	307105.600
6860	6804	1	0.1080	307105.600
6861	6805	1	0.1080	307105.600
6862	6807	1	0.1080	284512.000
6863	6808	1	0.1080	284512.000
6864	6810	1	0.1050	345196.736
6865	6812	1	0.1080	284512.000
6866	6813	1	0.1080	284512.000
6867	6814	1	0.1080	284512.000
6868	6828	1	0.1080	307105.600
6869	6829	1	0.1080	307105.600
6870	6830	1	0.1080	307105.600
6871	6831	1	0.1080	307105.600
6872	6832	1	0.1080	307105.600
6873	6837	1	0.1090	284512.000
6874	6837	1	0.1090	284512.000
6875	6839	1	0.1090	284512.000
6876	6839	1	0.1090	284512.000
6877	6839	1	0.1090	284512.000
6878	6840	1	0.1090	284512.000
6879	6840	1	0.1090	284512.000
6880	6840	1	0.1090	284512.000
6881	6841	1	0.1090	284512.000
6882	6841	1	0.1090	284512.000
6883	6842	1	0.1080	307105.600
6884	6843	1	0.1080	307105.600
6800	6799	1	0.1400	392459.200
6802	6801	1	0.1400	392459.200
6826	6825	1	0.1410	267776.000
6832	6831	1	0.1400	392459.200
6841	6838	1	0.1529	224262.400
6843	6842	1	0.1400	392459.200
6886	6885	1	0.1448	319657.600
6887	6886	1	0.1448	319657.600
6888	6887	1	0.1529	224262.400
6889	6888	1	0.1410	267776.000
6890	6889	1	0.1364	376560.000
6891	6890	1	0.1400	392459.200
6892	6891	1	0.1400	392459.200
6893	6892	1	0.1400	392459.200
6894	6893	1	0.1460	322168.000
6895	6894	1	0.1400	392459.200
6896	6895	1	0.1400	392459.200
6897	6896	1	0.1400	392459.200
6898	6897	1	0.14	0.0
6899	6897	1	0.1400	392459.200
6900	6894	1	0.1400	392459.200
6901	6893	1	0.1400	392459.200
6902	6890	1	0.1400	392459.200
6903	6886	1	0.1340	402500.800
6904	6903	1	0.1400	392459.200
6905	6904	1	0.1400	392459.200
6906	6905	1	0.1400	392459.200
6907	6906	1	0.1433	357313.600
6908	6907	1	0.1345	459403.200
6909	6908	1	0.1345	459403.200
6910	6909	1	0.1345	459403.200
6911	6910	1	0.1345	459403.200
6912	6911	1	0.1345	459403.200
6913	6912	1	0.1345	459403.200
6914	6913	1	0.1345	459403.200
6915	6914	1	0.1433	357313.600
6916	6915	1	0.1340	459403.200
6917	6916	1	0.1426	334720.000
6918	6917	1	0.1157	543920.000
6919	6916	1	0.1365	459403.200
6920	6919	1	0.1367	456892.800
6921	6920	1	0.1426	334720.000
6922	6921	1	0.1157	543920.000
6923	6920	1	0.1426	334720.000
6924	6923	1	0.1157	543920.000
6925	6919	1	0.1360	284512.000
6926	6915	1	0.1510	265265.600
6927	6926	1	0.1510	265265.600
6928	6927	1	0.1400	392459.200
6929	6928	1	0.1400	392459.200
6930	6929	1	0.1400	392459.200
6931	6930	1	0.1400	392459.200
6932	6927	1	0.1400	392459.200
6933	6926	1	0.1529	224262.400
6934	6933	1	0.1360	307105.600
6935	6933	1	0.1360	307105.600
6936	6933	1	0.1360	307105.600
6937	6911	1	0.1510	265265.600
6938	6937	1	0.1529	224262.400
6939	6938	1	0.1529	224262.400
6940	6938	1	0.1529	224262.400
6941	6909	1	0.1510	265265.600
6942	6906	1	0.1400	392459.200
6943	6903	1	0.1400	392459.200
6944	6885	1	0.1090	284512.000
6945	6885	1	0.1090	284512.000
6946	6885	1	0.1090	284512.000
6947	6887	1	0.1090	284512.000
6948	6887	1	0.1090	284512.000
6949	6888	1	0.1090	284512.000
6950	6888	1	0.1090	284512.000
6951	6891	1	0.1080	307105.600
6952	6892	1	0.1080	307105.600
6953	6895	1	0.1080	307105.600
6954	6896	1	0.1080	307105.600
6955	6898	1	0.14	0.0
6956	6899	1	0.1080	307105.600
6957	6900	1	0.1080	307105.600
6958	6901	1	0.1080	307105.600
6959	6902	1	0.1080	307105.600
6960	6904	1	0.1080	307105.600
6961	6905	1	0.1080	307105.600
6962	6907	1	0.1080	284512.000
6963	6908	1	0.1080	284512.000
6964	6910	1	0.1050	345196.736
6965	6912	1	0.1080	284512.000
6966	6913	1	0.1080	284512.000
6967	6914	1	0.1080	284512.000
6968	6928	1	0.1080	307105.600
6969	6929	1	0.1080	307105.600
6970	6930	1	0.1080	307105.600
6971	6931	1	0.1080	307105.600
6972	6932	1	0.1080	307105.600
6973	6937	1	0.1090	284512.000
6974	6937	1	0.1090	284512.000
6975	6939	1	0.1090	284512.000
6976	6939	1	0.1090	284512.000
6977	6939	1	0.1090	284512.000
6978	6940	1	0.1090	284512.000
6979	6940	1	0.1090	284512.000
6980	6940	1	0.1090	284512.000
6981	6941	1	0.1090	284512.000
6982	6941	1	0.1090	284512.000
6983	6942	1	0.1080	307105.600
6984	6943	1	0.1080	307105.600
6900	6899	1	0.1400	392459.200
6902	6901	1	0.1400	392459.200
6926	6925	1	0.1410	267776.000
6932	6931	1	0.1400	392459.200
6941	6938	1	0.1529	224262.400
6943	6942	1	0.1400	392459.200
6986	6985	1	0.1448	319657.600
6987	6986	1	0.1448	319657.600
6988	6987	1	0.1529	224262.400
6989	6988	1	0.1410	267776.000
6990	6989	1	0.1364	376560.000
6991	6990	1	0.1400	392459.200
6992	6991	1	0.1400	392459.200
6993	6992	1	0.1400	392459.200
6994	6993	1	0.1460	322168.000
6995	6994	1	0.1400	392459.200
6996	6995	1	0.1400	392459.200
6997	6996	1	0.1400	392459.200
6998	6997	1	0.14	0.0
6999	6997	1	0.1400	392459.200
7000	6994	1	0.1400	392459.200
7001	6993	1	0.1400	392459.200
7002	6990	1	0.1400	392459.200
7003	6986	1	0.1340	402500.800
7004	7003	1	0.1400	392459.200
7005	7004	1	0.1400	392459.200
7006	7005	1	0.1400	392459.200
7007	7006	1	0.1433	357313.600
7008	7007	1	0.1345	459403.200
7009	7008	1	0.1345	459403.200
7010	7009	1	0.1345	459403.200
7011	7010	1	0.1345	459403.200
7012	7011	1	0.1345	459403.200
7013	7012	1	0.1345	459403.200
7014	7013	1	0.1345	459403.200
7015	7014	1	0.1433	357313.600
7016	7015	1	0.1340	459403.200
7017	7016	1	0.1426	334720.000
7018	7017	1	0.1157	543920.000
7019	7016	1	0.1365	459403.200
7020	7019	1	0.1367	456892.800
7021	7020	1	0.1426	334720.000
7022	7021	1	0.1157	543920.000
7023	7020	1	0.1426	334720.000
7024	7023	1	0.1157	543920.000
7025	7019	1	0.1360	284512.000
7026	7015	1	0.1510	265265.600
7027	7026	1	0.1510	265265.600
7028	7027	1	0.1400	392459.200
7029	7028	1	0.1400	392459.200
7030	7029	1	0.1400	392459.200
7031	7030	1	0.1400	392459.200
7032	7027	1	0.1400	392459.200
7033	7026	1	0.1529	224262.400
7034	7033	1	0.1360	307105.600
7035	7033	1	0.1360	307105.600
7036	7033	1	0.1360	307105.600
7037	7011	1	0.1510	265265.600
7038	7037	1	0.1529	224262.400
7039	7038	1	0.1529	224262.400
7040	7038	1	0.1529	224262.400
7041	7009	1	0.1510	265265.600
7042	7006	1	0.1400	392459.200
7043	7003	1	0.1400	392459.200
7044	6985	1	0.1090	284512.000
7045	6985	1	0.1090	284512.000
7046	6985	1	0.1090	284512.000
7047	6987	1	0.1090	284512.000
7048	6987	1	0.1090	284512.000
7049	6988	1	0.1090	284512.000
7050	6988	1	0.1090	284512.000
7051	6991	1	0.1080	307105.600
7052	6992	1	0.1080	307105.600
7053	6995	1	0.1080	307105.600
7054	6996	1	0.1080	307105.600
7055	6998	1	0.14	0.0
7056	6999	1	0.1080	307105.600
7057	7000	1	0.1080	307105.600
7058	7001	1	0.1080	307105.600
7059	7002	1	0.1080	307105.600
7060	7004	1	0.1080	307105.600
7061	7005	1	0.1080	307105.600
7062	7007	1	0.1080	284512.000
7063	7008	1	0.1080	284512.000
7064	7010	1	0.1050	345196.736
7065	7012	1	0.1080	284512.000
7066	7013	1	0.1080	284512.000
7067	7014	1	0.1080	284512.000
7068	7028	1	0.1080	307105.600
7069	7029	1	0.1080	307105.600
7070	7030	1	0.1080	307105.600
7071	7031	1	0.1080	307105.600
7072	7032	1	0.1080	307105.600
7073	7037	1	0.1090	284512.000
7074	7037	1	0.1090	284512.000
7075	7039	1	0.1090	284512.000
7076	7039	1	0.1090	284512.000
7077	7039	1	0.1090	284512.000
7078	7040	1	0.1090	284512.000
7079	7040	1	0.1090	284512.000
7080	7040	1	0.1090	284512.000
7081	7041	1	0.1090	284512.000
7082	7041	1	0.1090	284512.000
7083	7042	1	0.1080	307105.600
7084	7043	1	0.1080	307105.600
7000	6999	1	0.1400	392459.200
7002	7001	1	0.1400	392459.200
7026	7025	1	0.1410	267776.000
7032	7031	1	0.1400	392459.200
7041	7038	1	0.1529	224262.400
7043	7042	1	0.1400	392459.200
7086	7085	1	0.1448	319657.600
7087	7086	1	0.1448	319657.600
7088	7087	1	0.1529	224262.400
7089	7088	1	0.1410	267776.000
7090	7089	1	0.1364	376560.000
7091	7090	1	0.1400	392459.200
7092	7091	1	0.1400	392459.200
7093	7092	1	0.1400	392459.200
7094	7093	1	0.1460	322168.000
7095	7094	1	0.1400	392459.200
7096	7095	1	0.1400	392459.200
7097	7096	1	0.1400	392459.200
7098	7097	1	0.14	0.0
7099	7097	1	0.1400	392459.200
7100	7094	1	0.1400	392459.200
7101	7093	1	0.1400	392459.200
7102	7090	1	0.1400	392459.200
7103	7086	1	0.1340	402500.800
7104	7103	1	0.1400	392459.200
7105	7104	1	0.1400	392459.200
7106	7105	1	0.1400	392459.200
7107	7106	1	0.1433	357313.600
7108	7107	1	0.1345	459403.200
7109	7108	1	0.1345	459403.200
7110	7109	1	0.1345	459403.200
7111	7110	1	0.1345	459403.200
7112	7111	1	0.1345	459403.200
7113	7112	1	0.1345	459403.200
7114	7113	1	0.1345	459403.200
7115	7114	1	0.1433	357313.600
7116	7115	1	0.1340	459403.200
7117	7116	1	0.1426	334720.000
7118	7117	1	0.1157	543920.000
7119	7116	1	0.1365	459403.200
7120	7119	1	0.1367	456892.800
7121	7120	1	0.1426	334720.000
7122	7121	1	0.1157	543920.000
7123	7120	1	0.1426	334720.000
7124	7123	1	0.1157	543920.000
7125	7119	1	0.1360	284512.000
7126	7115	1	0.1510	265265.600
7127	7126	1	0.1510	265265.600
7128	7127	1	0.1400	392459.200
7129	7128	1	0.1400	392459.200
7130	7129	1	0.1400	392459.200
7131	7130	1	0.1400	392459.200
7132	7127	1	0.1400	392459.200
7133	7126	1	0.1529	224262.400
7134	7133	1	0.1360	307105.600
7135	7133	1	0.1360	307105.600
7136	7133	1	0.1360	307105.600
7137	7111	1	0.1510	265265.600
7138	7137	1	0.1529	224262.400
7139	7138	1	0.1529	224262.400
7140	7138	1	0.1529	224262.400
7141	7109	1	0.1510	265265.600
7142	7106	1	0.1400	392459.200
7143	7103	1	0.1400	392459.200
7144	7085	1	0.1090	284512.000
7145	7085	1	0.1090	284512.000
7146	7085	1	0.1090	284512.000
7147	7087	1	0.1090	284512.000
7148	7087	1	0.1090	284512.000
7149	7088	1	0.1090	284512.000
7150	7088	1	0.1090	284512.000
7151	7091	1	0.1080	307105.600
7152	7092	1	0.1080	307105.600
7153	7095	1	0.1080	307105.600
7154	7096	1	0.1080	307105.600
7155	7098	1	0.14	0.0
7156	7099	1	0.1080	307105.600
7157	7100	1	0.1080	307105.600
7158	7101	1	0.1080	307105.600
7159	7102	1	0.1080	307105.600
7160	7104	1	0.1080	307105.600
7161	7105	1	0.1080	307105.600
7162	7107	1	0.1080	284512.000
7163	7108	1	0.1080	284512.000
7164	7110	1	0.1050	345196.736
7165	7112	1	0.1080	284512.000
7166	7113	1	0.1080	284512.000
7167	7114	1	0.1080	284512.000
7168	7128	1	0.1080	307105.600
7169	7129	1	0.1080	307105.600
7170	7130	1	0.1080	307105.600
7171	7131	1	0.1080	307105.600
7172	7132	1	0.1080	307105.600
7173	7137	1	0.1090	284512.000
7174	7137	1	0.1090	284512.000
7175	7139	1	0.1090	284512.000
7176	7139	1	0.1090	284512.000
7177	7139	1	0.1090	284512.000
7178	7140	1	0.1090	284512.000
7179	7140	1	0.1090	284512.000
7180	7140	1	0.1090	284512.000
7181	7141	1	0.1090	284512.000
7182	7141	1	0.1090	284512.000
7183	7142	1	0.1080	307105.600
7184	7143	1	0.1080	307105.600
7100	7099	1	0.1400	392459.200
7102	7101	1	0.1400	392459.200
7126	7125	1	0.1410	267776.000
7132	7131	1	0.1400	392459.200
7141	7138	1	0.1529	224262.400
7143	7142	1	0.1400	392459.200
7186	7185	1	0.1448	319657.600
7187	7186	1	0.1448	319657.600
7188	7187	1	0.1529	224262.400
7189	7188	1	0.1410	267776.000
7190	7189	1	0.1364	376560.000
7191	7190	1	0.1400	392459.200
7192	7191	1	0.1400	392459.200
7193	7192	1	0.1400	392459.200
7194	7193	1	0.1460	322168.000
7195	7194	1	0.1400	392459.200
7196	7195	1	0.1400	392459.200
7197	7196	1	0.1400	392459.200
7198	7197	1	0.14	0.0
7199	7197	1	0.1400	392459.200
7200	7194	1	0.1400	392459.200
7201	7193	1	0.1400	392459.200
7202	7190	1	0.1400	392459.200
7203	7186	1	0.1340	402500.800
7204	7203	1	0.1400	392459.200
7205	7204	1	0.1400	392459.200
7206	7205	1	0.1400	392459.200
7207	7206	1	0.1433	357313.600
7208	7207	1	0.1345	459403.200
7209	7208	1	0.1345	459403.200
7210	7209	1	0.1345	459403.200
7211	7210	1	0.1345	459403.200
7212	7211	1	0.1345	459403.200
7213	7212	1	0.1345	459403.200
7214	7213	1	0.1345	459403.200
7215	7214	1	0.1433	357313.600
7216	7215	1	0.1340	459403.200
7217	7216	1	0.1426	334720.000
7218	7217	1	0.1157	543920.000
7219	7216	1	0.1365	459403.200
7220	7219	1	0.1367	456892.800
7221	7220	1	0.1426	334720.000
7222	7221	1	0.1157	543920.000
7223	7220	1	0.1426	334720.000
7224	7223	1	0.1157	543920.000
7225	7219	1	0.1360	284512.000
7226	7215	1	0.1510	265265.600
7227	7226	1	0.1510	265265.600
7228	7227	1	0.1400	392459.200
7229	7228	1	0.1400	392459.200
7230	7229	1	0.1400	392459.200
7231	7230	1	0.1400	392459.200
7232	7227	1	0.1400	392459.200
7233	7226	1	0.1529	224262.400
7234	7233	1	0.1360	307105.600
7235	7233	1	0.1360	307105.600
7236	7233	1	0.1360	307105.600
7237	7211	1	0.1510	265265.600
7238	7237	1	0.1529	224262.400
7239	7238	1	0.1529	224262.400
7240	7238	1	0.1529	224262.400
7241	7209	1	0.1510	265265.600
7242	7206	1	0.1400	392459.200
7243	7203	1	0.1400	392459.200
7244	7185	1	0.1090	284512.000
7245	7185	1	0.1090	284512.000
7246	7185	1	0.1090	284512.000
7247	7187	1	0.1090	284512.000
7248	7187	1	0.1090	284512.000
7249	7188	1	0.1090	284512.000
7250	7188	1	0.1090	284512.000
7251	7191	1	0.1080	307105.600
7252	7192	1	0.1080	307105.600
7253	7195	1	0.1080	307105.600
7254	7196	1	0.1080	307105.600
7255	7198	1	0.14	0.0
7256	7199	1	0.1080	307105.600
7257	7200	1	0.1080	307105.600
7258	7201	1	0.1080	307105.600
7259	7202	1	0.1080	307105.600
7260	7204	1	0.1080	307105.600
7261	7205	1	0.1080	307105.600
7262	7207	1	0.1080	284512.000
7263	7208	1	0.1080	284512.000
7264	7210	1	0.1050	345196.736
7265	7212	1	0.1080	284512.000
7266	7213	1	0.1080	284512.000
7267	7214	1	0.1080	284512.000
7268	7228	1	0.1080	307105.600
7269	7229	1	0.1080	307105.600
7270	7230	1	0.1080	307105.600
7271	7231	1	0.1080	307105.600
7272	7232	1	0.1080	307105.600
7273	7237	1	0.1090	284512.000
7274	7237	1	0.1090	284512.000
7275	7239	1	0.1090	284512.000
7276	7239	1	0.1090	284512.000
7277	7239	1	0.1090	284512.000
7278	7240	1	0.1090	284512.000
7279	7240	1	0.1090	284512.000
7280	7240	1	0.1090	284512.000
7281	7241	1	0.1090	284512.000
7282	7241	1	0.1090	284512.000
7283	7242	1	0.1080	307105.600
7284	7243	1	0.1080	307105.600
7200	7199	1	0.1400	392459.200
7202	7201	1	0.1400	392459.200
7226	7225	1	0.1410	267776.000
7232	7231	1	0.1400	392459.200
7241	7238	1	0.1529	224262.400
7243	7242	1	0.1400	392459.200
7286	7285	1	0.1448	319657.600
7287	7286	1	0.1448	319657.600
7288	7287	1	0.1529	224262.400
7289	7288	1	0.1410	267776.000
7290	7289	1	0.1364	376560.000
7291	7290	1	0.1400	392459.200
7292	7291	1	0.1400	392459.200
7293	7292	1	0.1400	392459.200
7294	7293	1	0.1460	322168.000
7295	7294	1	0.1400	392459.200
7296	7295	1	0.1400	392459.200
7297	7296	1	0.1400	392459.200
7298	7297	1	0.14	0.0
7299	7297	1	0.1400	392459.200
7300	7294	1	0.1400	392459.200
7301	7293	1	0.1400	392459.200
7302	7290	1	0.1400	392459.200
7303	7286	1	0.1340	402500.800
7304	7303	1	0.1400	392459.200
7305	7304	1	0.1400	392459.200
7306	7305	1	0.1400	392459.200
7307	7306	1	0.1433	357313.600
7308	7307	1	0.1345	459403.200
7309	7308	1	0.1345	459403.200
7310	7309	1	0.1345	459403.200
7311	7310	1	0.1345	459403.200
7312	7311	1	0.1345	459403.200
7313	7312	1	0.1345	459403.200
7314	7313	1	0.1345	459403.200
7315	7314	1	0.1433	357313.600
7316	7315	1	0.1340	459403.200
7317	7316	1	0.1426	334720.000
7318	7317	1	0.1157	543920.000
7319	7316	1	0.1365	459403.200
7320	7319	1	0.1367	456892.800
7321	7320	1	0.1426	334720.000
7322	7321	1	0.1157	543920.000
7323	7320	1	0.1426	334720.000
7324	7323	1	0.1157	543920.000
7325	7319	1	0.1360	284512.000
7326	7315	1	0.1510	265265.600
7327	7326	1	0.1510	265265.600
7328	7327	1	0.1400	392459.200
7329	7328	1	0.1400	392459.200
7330	7329	1	0.1400	392459.200
7331	7330	1	0.1400	392459.200
7332	7327	1	0.1400	392459.200
7333	7326	1	0.1529	224262.400
7334	7333	1	0.1360	307105.600
7335	7333	1	0.1360	307105.600
7336	7333	1	0.1360	307105.600
7337	7311	1	0.1510	265265.600
7338	7337	1	0.1529	224262.400
7339	7338	1	0.1529	224262.400
7340	7338	1	0.1529	224262.400
7341	7309	1	0.1510	265265.600
7342	7306	1	0.1400	392459.200
7343	7303	1	0.1400	392459.200
7344	7285	1	0.1090	284512.000
7345	7285	1	0.1090	284512.000
7346	7285	1	0.1090	284512.000
7347	7287	1	0.1090	284512.000
7348	7287	1	0.1090	284512.000
7349	7288	1	0.1090	284512.000
7350	7288	1	0.1090	284512.000
7351	7291	1	0.1080	307105.600
7352	7292	1	0.1080	307105.600
7353	7295	1	0.1080	307105.600
7354	7296	1	0.1080	307105.600
7355	7298	1	0.14	0.0
7356	7299	1	0.1080	307105.600
7357	7300	1	0.1080	307105.600
7358	7301	1	0.1080	307105.600
7359	7302	1	0.1080	307105.600
7360	7304	1	0.1080	307105.600
7361	7305	1	0.1080	307105.600
7362	7307	1	0.1080	284512.000
7363	7308	1	0.1080	284512.000
7364	7310	1	0.1050	345196.736
7365	7312	1	0.1080	284512.000
7366	7313	1	0.1080	284512.000
7367	7314	1	0.1080	284512.000
7368	7328	1	0.1080	307105.600
7369	7329	1	0.1080	307105.600
7370	7330	1	0.1080	307105.600
7371	7331	1	0.1080	307105.600
7372	7332	1	0.1080	307105.600
7373	7337	1	0.1090	284512.000
7374	7337	1	0.1090	284512.000
7375	7339	1	0.1090	284512.000
7376	7339	1	0.1090	284512.000
7377	7339	1	0.1090	284512.000
7378	7340	1	0.1090	284512.000
7379	7340	1	0.1090	284512.000
7380	7340	1	0.1090	284512.000
7381	7341	1	0.1090	284512.000
7382	7341	1	0.1090	284512.000
7383	7342	1	0.1080	307105.600
7384	7343	1	0.1080	307105.600
7300	7299	1	0.1400	392459.200
7302	7301	1	0.1400	392459.200
7326	7325	1	0.1410	267776.000
7332	7331	1	0.1400	392459.200
7341	7338	1	0.1529	224262.400
7343	7342	1	0.1400	392459.200
7386	7385	1	0.1448	319657.600
7387	7386	1	0.1448	319657.600
7388	7387	1	0.1529	224262.400
7389	7388	1	0.1410	267776.000
7390	7389	1	0.1364	376560.000
7391	7390	1	0.1400	392459.200
7392	7391	1	0.1400	392459.200
7393	7392	1	0.1400	392459.200
7394	7393	1	0.1460	322168.000
7395	7394	1	0.1400	392459.200
7396	7395	1	0.1400	392459.200
7397	7396	1	0.1400	392459.200
7398	7397	1	0.14	0.0
7399	7397	1	0.1400	392459.200
7400	7394	1	0.1400	392459.200
7401	7393	1	0.1400	392459.200
7402	7390	1	0.1400	392459.200
7403	7386	1	0.1340	402500.800
7404	7403	1	0.1400	392459.200
7405	7404	1	0.1400	392459.200
7406	7405	1	0.1400	392459.200
7407	7406	1	0.1433	357313.600
7408	7407	1	0.1345	459403.200
7409	7408	1	0.1345	459403.200
7410	7409	1	0.1345	459403.200
7411	7410	1	0.1345	459403.200
7412	7411	1	0.1345	459403.200
7413	7412	1	0.1345	459403.200
7414	7413	1	0.1345	459403.200
7415	7414	1	0.1433	357313.600
7416	7415	1	0.1340	459403.200
7417	7416	1	0.1426	334720.000
7418	7417	1	0.1157	543920.000
7419	7416	1	0.1365	459403.200
7420	7419	1	0.1367	456892.800
7421	7420	1	0.1426	334720.000
7422	7421	1	0.1157	543920.000
7423	7420	1	0.1426	334720.000
7424	7423	1	0.1157	543920.000
7425	7419	1	0.1360	284512.000
7426	7415	1	0.1510	265265.600
7427	7426	1	0.1510	265265.600
7428	7427	1	0.1400	392459.200
7429	7428	1	0.1400	392459.200
7430	7429	1	0.1400	392459.200
7431	7430	1	0.1400	392459.200
7432	7427	1	0.1400	392459.200
7433	7426	1	0.1529	224262.400
7434	7433	1	0.1360	307105.600
7435	7433	1	0.1360	307105.600
7436	7433	1	0.1360	307105.600
7437	7411	1	0.1510	265265.600
7438	7437	1	0.1529	224262.400
7439	7438	1	0.1529	224262.400
7440	7438	1	0.1529	224262.400
7441	7409	1	0.1510	265265.600
7442	7406	1	0.1400	392459.200
7443	7403	1	0.1400	392459.200
7444	7385	1	0.1090	284512.000
7445	7385	1	0.1090	284512.000
7446	7385	1	0.1090	284512.000
7447	7387	1	0.1090	284512.000
7448	7387	1	0.1090	284512.000
7449	7388	1	0.1090	284512.000
7450	7388	1	0.1090	284512.000
7451	7391	1	0.1080	307105.600
7452	7392	1	0.1080	307105.600
7453	7395	1	0.1080	307105.600
7454	7396	1	0.1080	307105.600
7455	7398	1	0.14	0.0
7456	7399	1	0.1080	307105.600
7457	7400	1	0.1080	307105.600
7458	7401	1	0.1080	307105.600
7459	7402	1	0.1080	307105.600
7460	7404	1	0.1080	307105.600
7461	7405	1	0.1080	307105.600
7462	7407	1	0.1080	284512.000
7463	7408	1	0.1080	284512.000
7464	7410	1	0.1050	345196.736
7465	7412	1	0.1080	284512.000
7466	7413	1	0.1080	284512.000
7467	7414	1	0.1080	284512.000
7468	7428	1	0.1080	307105.600
7469	7429	1	0.1080	307105.600
7470	7430	1	0.1080	307105.600
7471	7431	1	0.1080	307105.600
7472	7432	1	0.1080	307105.600
7473	7437	1	0.1090	284512.000
7474	7437	1	0.1090	284512.000
7475	7439	1	0.1090	284512.000
7476	7439	1	0.1090	284512.000
7477	7439	1	0.1090	284512.000
7478	7440	1	0.1090	284512.000
7479	7440	1	0.1090	284512.000
7480	7440	1	0.1090	284512.000
7481	7441	1	0.1090	284512.000
7482	7441	1	0.1090	284512.000
7483	7442	1	0.1080	307105.600
7484	7443	1	0.1080	307105.600
7400	7399	1	0.1400	392459.200
7402	7401	1	0.1400	392459.200
7426	7425	1	0.1410	267776.000
7432	7431	1	0.1400	392459.200
7441	7438	1	0.1529	224262.400
7443	7442	1	0.1400	392459.200
7486	7485	1	0.1448	319657.600
7487	7486	1	0.1448	319657.600
7488	7487	1	0.1529	224262.400
7489	7488	1	0.1410	267776.000
7490	7489	1	0.1364	376560.000
7491	7490	1	0.1400	392459.200
7492	7491	1	0.1400	392459.200
7493	7492	1	0.1400	392459.200
7494	7493	1	0.1460	322168.000
7495	7494	1	0.1400	392459.200
7496	7495	1	0.1400	392459.200
7497	7496	1	0.1400	392459.200
7498	7497	1	0.14	0.0
7499	7497	1	0.1400	392459.200
7500	7494	1	0.1400	392459.200
7501	7493	1	0.1400	392459.200
7502	7490	1	0.1400	392459.200
7503	7486	1	0.1340	402500.800
7504	7503	1	0.1400	392459.200
7505	7504	1	0.1400	392459.200
7506	7505	1	0.1400	392459.200
7507	7506	1	0.1433	357313.600
7508	7507	1	0.1345	459403.200
7509	7508	1	0.1345	459403.200
7510	7509	1	0.1345	459403.200
7511	7510	1	0.1345	459403.200
7512	7511	1	0.1345	459403.200
7513	7512	1	0.1345	459403.200
7514	7513	1	0.1345	459403.200
7515	7514	1	0.1433	357313.600
7516	7515	1	0.1340	459403.200
7517	7516	1	0.1426	334720.000
7518	7517	1	0.1157	543920.000
7519	7516	1	0.1365	459403.200
7520	7519	1	0.1367	456892.800
7521	7520	1	0.1426	334720.000
7522	7521	1	0.1157	543920.000
7523	7520	1	0.1426	334720.000
7524	7523	1	0.1157	543920.000
7525	7519	1	0.1360	284512.000
7526	7515	1	0.1510	265265.600
7527	7526	1	0.1510	265265.600
7528	7527	1	0.1400	392459.200
7529	7528	1	0.1400	392459.200
7530	7529	1	0.1400	392459.200
7531	7530	1	0.1400	392459.200
7532	7527	1	0.1400	392459.200
7533	7526	1	0.1529	224262.400
7534	7533	1	0.1360	307105.600
7535	7533	1	0.1360	307105.600
7536	7533	1	0.1360	307105.600
7537	7511	1	0.1510	265265.600
7538	7537	1	0.1529	224262.400
7539	7538	1	0.1529	224262.400
7540	7538	1	0.1529	224262.400
7541	7509	1	0.1510	265265.600
7542	7506	1	0.1400	392459.200
7543	7503	1	0.1400	392459.200
7544	7485	1	0.1090	284512.000
7545	7485	1	0.1090	284512.000
7546	7485	1	0.1090	284512.000
7547	7487	1	0.1090	284512.000
7548	7487	1	0.1090	284512.000
7549	7488	1	0.1090	284512.000
7550	7488	1	0.1090	284512.000
7551	7491	1	0.1080	307105.600
7552	7492	1	0.1080	307105.600
7553	7495	1	0.1080	307105.600
7554	7496	1	0.1080	307105.600
7555	7498	1	0.14	0.0
7556	7499	1	0.1080	307105.600
7557	7500	1	0.1080	307105.600
7558	7501	1	0.1080	307105.600
7559	7502	1	0.1080	307105.600
7560	7504	1	0.1080	307105.600
7561	7505	1	0.1080	307105.600
7562	7507	1	0.1080	284512.000
7563	7508	1	0.1080	284512.000
7564	7510	1	0.1050	345196.736
7565	7512	1	0.1080	284512.000
7566	7513	1	0.1080	284512.000
7567	7514	1	0.1080	284512.000
7568	7528	1	0.1080	307105.600
7569	7529	1	0.1080	307105.600
7570	7530	1	0.1080	307105.600
7571	7531	1	0.1080	307105.600
7572	7532	1	0.1080	307105.600
7573	7537	1	0.1090	284512.000
7574	7537	1	0.1090	284512.000
7575	7539	1	0.1090	284512.000
7576	7539	1	0.1090	284512.000
7577	7539	1	0.1090	284512.000
7578	7540	1	0.1090	284512.000
7579	7540	1	0.1090	284512.000
7580	7540	1	0.1090	284512.000
7581	7541	1	0.1090	284512.000
7582	7541	1	0.1090	284512.000
7583	7542	1	0.1080	307105.600
7584	7543	1	0.1080	307105.600
7500	7499	1	0.1400	392459.200
7502	7501	1	0.1400	392459.200
7526	7525	1	0.1410	267776.000
7532	7531	1	0.1400	392459.200
7541	7538	1	0.1529	224262.400
7543	7542	1	0.1400	392459.200
7586	7585	1	0.1448	319657.600
7587	7586	1	0.1448	319657.600
7588	7587	1	0.1529	224262.400
7589	7588	1	0.1410	267776.000
7590	7589	1	0.1364	376560.000
7591	7590	1	0.1400	392459.200
7592	7591	1	0.1400	392459.200
7593	7592	1	0.1400	392459.200
7594	7593	1	0.1460	322168.000
7595	7594	1	0.1400	392459.200
7596	7595	1	0.1400	392459.200
7597	7596	1	0.1400	392459.200
7598	7597	1	0.14	0.0
7599	7597	1	0.1400	392459.200
7600	7594	1	0.1400	392459.200
7601	7593	1	0.1400	392459.200
7602	7590	1	0.1400	392459.200
7603	7586	1	0.1340	402500.800
7604	7603	1	0.1400	392459.200
7605	7604	1	0.1400	392459.200
7606	7605	1	0.1400	392459.200
7607	7606	1	0.1433	357313.600
7608	7607	1	0.1345	459403.200
7609	7608	1	0.1345	459403.200
7610	7609	1	0.1345	459403.200
7611	7610	1	0.1345	459403.200
7612	7611	1	0.1345	459403.200
7613	7612	1	0.1345	459403.200
7614	7613	1	0.1345	459403.200
7615	7614	1	0.1433	357313.600
7616	7615	1	0.1340	459403.200
7617	7616	1	0.1426	334720.000
7618	7617	1	0.1157	543920.000
7619	7616	1	0.1365	459403.200
7620	7619	1	0.1367	456892.800
7621	7620	1	0.1426	334720.000
7622	7621	1	0.1157	543920.000
7623	7620	1	0.1426	334720.000
7624	7623	1	0.1157	543920.000
7625	7619	1	0.1360	284512.000
7626	7615	1	0.1510	265265.600
7627	7626	1	0.1510	265265.600
7628	7627	1	0.1400	392459.200
7629	7628	1	0.1400	392459.200
7630	7629	1	0.1400	392459.200
7631	7630	1	0.1400	392459.200
7632	7627	1	0.1400	392459.200
7633	7626	1	0.1529	224262.400
7634	7633	1	0.1360	307105.600
7635	7633	1	0.1360	307105.600
7636	7633	1	0.1360	307105.600
7637	7611	1	0.1510	265265.600
7638	7637	1	0.1529	224262.400
7639	7638	1	0.1529	224262.400
7640	7638	1	0.1529	224262.400
7641	7609	1	0.1510	265265.600
7642	7606	1	0.1400	392459.200
7643	7603	1	0.1400	392459.200
7644	7585	1	0.1090	284512.000
7645	7585	1	0.1090	284512.000
7646	7585	1	0.1090	284512.000
7647	7587	1	0.1090	284512.000
7648	7587	1	0.1090	284512.000
7649	7588	1	0.1090	284512.000
7650	7588	1	0.1090	284512.000
7651	7591	1	0.1080	307105.600
7652	7592	1	0.1080	307105.600
7653	7595	1	0.1080	307105.600
7654	7596	1	0.1080	307105.600
7655	7598	1	0.14	0.0
7656	7599	1	0.1080	307105.600
7657	7600	1	0.1080	307105.600
7658	7601	1	0.1080	307105.600
7659	7602	1	0.1080	307105.600
7660	7604	1	0.1080	307105.600
7661	7605	1	0.1080	307105.600
7662	7607	1	0.1080	284512.000
7663	7608	1	0.1080	284512.000
7664	7610	1	0.1050	345196.736
7665	7612	1	0.1080	284512.000
7666	7613	1	0.1080	284512.000
7667	7614	1	0.1080	284512.000
7668	7628	1	0.1080	307105.600
7669	7629	1	0.1080	307105.600
7670	7630	1	0.1080	307105.600
7671	7631	1	0.1080	307105.600
7672	7632	1	0.1080	307105.600
7673	7637	1	0.1090	284512.000
7674	7637	1	0.1090	284512.000
7675	7639	1	0.1090	284512.000
7676	7639	1	0.1090	284512.000
7677	7639	1	0.1090	284512.000
7678	7640	1	0.1090	284512.000
7679	7640	1	0.1090	284512.000
7680	7640	1	0.1090	284512.000
7681	7641	1	0.1090	284512.000
7682	7641	1	0.1090	284512.000
7683	7642	1	0.1080	307105.600
7684	7643	1	0.1080	307105.600
7600	7599	1	0.1400	392459.200
7602	7601	1	0.1400	392459.200
7626	7625	1	0.1410	267776.000
7632	7631	1	0.1400	392459.200
7641	7638	1	0.1529	224262.400
7643	7642	1	0.1400	392459.200
7686	7685	1	0.1448	319657.600
7687	7686	1	0.1448	319657.600
7688	7687	1	0.1529	224262.400
7689	7688	1	0.1410	267776.000
7690	7689	1	0.1364	376560.000
7691	7690	1	0.1400	392459.200
7692	7691	1	0.1400	392459.200
7693	7692	1	0.1400	392459.200
7694	7693	1	0.1460	322168.000
7695	7694	1	0.1400	392459.200
7696	7695	1	0.1400	392459.200
7697	7696	1	0.1400	392459.200
7698	7697	1	0.14	0.0
7699	7697	1	0.1400	392459.200
7700	7694	1	0.1400	392459.200
7701	7693	1	0.1400	392459.200
7702	7690	1	0.1400	392459.200
7703	7686	1	0.1340	402500.800
7704	7703	1	0.1400	392459.200
7705	7704	1	0.1400	392459.200
7706	7705	1	0.1400	392459.200
7707	7706	1	0.1433	357313.600
7708	7707	1	0.1345	459403.200
7709	7708	1	0.1345	459403.200
7710	7709	1	0.1345	459403.200
7711	7710	1	0.1345	459403.200
7712	7711	1	0.1345	459403.200
7713	7712	1	0.1345	459403.200
7714	7713	1	0.1345	459403.200
7715	7714	1	0.1433	357313.600
7716	7715	1	0.1340	459403.200
7717	7716	1	0.1426	334720.000
7718	7717	1	0.1157	543920.000
7719	7716	1	0.1365	459403.200
7720	7719	1	0.1367	456892.800
7721	7720	1	0.1426	334720.000
7722	7721	1	0.1157	543920.000
7723	7720	1	0.1426	334720.000
7724	7723	1	0.1157	543920.000
7725	7719	1	0.1360	284512.000
7726	7715	1	0.1510	265265.600
7727	7726	1	0.1510	265265.600
7728	7727	1	0.1400	392459.200
7729	7728	1	0.1400	392459.200
7730	7729	1	0.1400	392459.200
7731	7730	1	0.1400	392459.200
7732	7727	1	0.1400	392459.200
7733	7726	1	0.1529	224262.400
7734	7733	1	0.1360	307105.600
7735	7733	1	0.1360	307105.600
7736	7733	1	0.1360	307105.600
7737	7711	1	0.1510	265265.600
7738	7737	1	0.1529	224262.400
7739	7738	1	0.1529	224262.400
7740	7738	1	0.1529	224262.400
7741	7709	1	0.1510	265265.600
7742	7706	1	0.1400	392459.200
7743	7703	1	0.1400	392459.200
7744	7685	1	0.1090	284512.000
7745	7685	1	0.1090	284512.000
7746	7685	1	0.1090	284512.000
7747	7687	1	0.1090	284512.000
7748	7687	1	0.1090	284512.000
7749	7688	1	0.1090	284512.000
7750	7688	1	0.1090	284512.000
7751	7691	1	0.1080	307105.600
7752	7692	1	0.1080	307105.600
7753	7695	1	0.1080	307105.600
7754	7696	1	0.1080	307105.600
7755	7698	1	0.14	0.0
7756	7699	1	0.1080	307105.600
7757	7700	1	0.1080	307105.600
7758	7701	1	0.1080	307105.600
7759	7702	1	0.1080	307105.600
7760	7704	1	0.1080	307105.600
7761	7705	1	0.1080	307105.600
7762	7707	1	0.1080	284512.000
7763	7708	1	0.1080	284512.000
7764	7710	1	0.1050	345196.736
7765	7712	1	0.1080	284512.000
7766	7713	1	0.1080	284512.000
7767	7714	1	0.1080	284512.000
7768	7728	1	0.1080	307105.600
7769	7729	1	0.1080	307105.600
7770	7730	1	0.1080	307105.600
7771	7731	1	0.1080	307105.600
7772	7732	1	0.1080	307105.600
7773	7737	1	0.1090	284512.000
7774	7737	1	0.1090	284512.000
7775	7739	1	0.1090	284512.000
7776	7739	1	0.1090	284512.000
7777	7739	1	0.1090	284512.000
7778	7740	1	0.1090	284512.000
7779	7740	1	0.1090	284512.000
7780	7740	1	0.1090	284512.000
7781	7741	1	0.1090	284512.000
7782	7741	1	0.1090	284512.000
7783	7742	1	0.1080	307105.600
7784	7743	1	0.1080	307105.600
7700	7699	1	0.1400	392459.200
7702	7701	1	0.1400	392459.200
7726	7725	1	0.1410	267776.000
7732	7731	1	0.1400	392459.200
7741	7738	1	0.1529	224262.400
7743	7742	1	0.1400	392459.200
7786	7785	1	0.1448	319657.600
7787	7786	1	0.1448	319657.600
7788	7787	1	0.1529	224262.400
7789	7788	1	0.1410	267776.000
7790	7789	1	0.1364	376560.000
7791	7790	1	0.1400	392459.200
7792	7791	1	0.1400	392459.200
7793	7792	1	0.1400	392459.200
7794	7793	1	0.1460	322168.000
7795	7794	1	0.1400	392459.200
7796	7795	1	0.1400	392459.200
7797	7796	1	0.1400	392459.200
7798	7797	1	0.14	0.0
7799	7797	1	0.1400	392459.200
7800	7794	1	0.1400	392459.200
7801	7793	1	0.1400	392459.200
7802	7790	1	0.1400	392459.200
7803	7786	1	0.1340	402500.800
7804	7803	1	0.1400	392459.200
7805	7804	1	0.1400	392459.200
7806	7805	1	0.1400	392459.200
7807	7806	1	0.1433	357313.600
7808	7807	1	0.1345	459403.200
7809	7808	1	0.1345	459403.200
7810	7809	1	0.1345	459403.200
7811	7810	1	0.1345	459403.200
7812	7811	1	0.1345	459403.200
7813	7812	1	0.1345	459403.200
7814	7813	1	0.1345	459403.200
7815	7814	1	0.1433	357313.600
7816	7815	1	0.1340	459403.200
7817	7816	1	0.1426	334720.000
7818	7817	1	0.1157	543920.000
7819	7816	1	0.1365	459403.200
7820	7819	1	0.1367	456892.800
7821	7820	1	0.1426	334720.000
7822	7821	1	0.1157	543920.000
7823	7820	1	0.1426	334720.000
7824	7823	1	0.1157	543920.000
7825	7819	1	0.1360	284512.000
7826	7815	1	0.1510	265265.600
7827	7826	1	0.1510	265265.600
7828	7827	1	0.1400	392459.200
7829	7828	1	0.1400	392459.200
7830	7829	1	0.1400	392459.200
7831	7830	1	0.1400	392459.200
7832	7827	1	0.1400	392459.200
7833	7826	1	0.1529	224262.400
7834	7833	1	0.1360	307105.600
7835	7833	1	0.1360	307105.600
7836	7833	1	0.1360	307105.600
7837	7811	1	0.1510	265265.600
7838	7837	1	0.1529	224262.400
7839	7838	1	0.1529	224262.400
7840	7838	1	0.1529	224262.400
7841	7809	1	0.1510	265265.600
7842	7806	1	0.1400	392459.200
7843	7803	1	0.1400	392459.200
7844	7785	1	0.1090	284512.000
7845	7785	1	0.1090	284512.000
7846	7785	1	0.1090	284512.000
7847	7787	1	0.1090	284512.000
7848	7787	1	0.1090	284512.000
7849	7788	1	0.1090	284512.000
7850	7788	1	0.1090	284512.000
7851	7791	1	0.1080	307105.600
7852	7792	1	0.1080	307105.600
7853	7795	1	0.1080	307105.600
7854	7796	1	0.1080	307105.600
7855	7798	1	0.14	0.0
7856	7799	1	0.1080	307105.600
7857	7800	1	0.1080	307105.600
7858	7801	1	0.1080	307105.600
7859	7802	1	0.1080	307105.600
7860	7804	1	0.1080	307105.600
7861	7805	1	0.1080	307105.600
7862	7807	1	0.1080	284512.000
7863	7808	1	0.1080	284512.000
7864	7810	1	0.1050	345196.736
7865	7812	1	0.1080	284512.000
7866	7813	1	0.1080	284512.000
7867	7814	1	0.1080	284512.000
7868	7828	1	0.1080	307105.600
7869	7829	1	0.1080	307105.600
7870	7830	1	0.1080	307105.600
7871	7831	1	0.1080	307105.600
7872	7832	1	0.1080	307105.600
7873	7837	1	0.1090	284512.000
7874	7837	1	0.1090	284512.000
7875	7839	1	0.1090	284512.000
7876	7839	1	0.1090	284512.000
7877	7839	1	0.1090	284512.000
7878	7840	1	0.1090	284512.000
7879	7840	1	0.1090	284512.000
7880	7840	1	0.1090	284512.000
7881	7841	1	0.1090	284512.000
7882	7841	1	0.1090	284512.000
7883	7842	1	0.1080	307105.600
7884	7843	1	0.1080	307105.600
7800	7799	1	0.1400	392459.200
7802	7801	1	0.1400	392459.200
7826	7825	1	0.1410	267776.000
7832	7831	1	0.1400	392459.200
7841	7838	1	0.1529	224262.400
7843	7842	1	0.1400	392459.200
7886	7885	1	0.1448	319657.600
7887	7886	1	0.1448	319657.600
7888	7887	1	0.1529	224262.400
7889	7888	1	0.1410	267776.000
7890	7889	1	0.1364	376560.000
7891	7890	1	0.1400	392459.200
7892	7891	1	0.1400	392459.200
7893	7892	1	0.1400	392459.200
7894	7893	1	0.1460	322168.000
7895	7894	1	0.1400	392459.200
7896	7895	1	0.1400	392459.200
7897	7896	1	0.1400	392459.200
7898	7897	1	0.14	0.0
7899	7897	1	0.1400	392459.200
7900	7894	1	0.1400	392459.200
7901	7893	1	0.1400	392459.200
7902	7890	1	0.1400	392459.200
7903	7886	1	0.1340	402500.800
7904	7903	1	0.1400	392459.200
7905	7904	1	0.1400	392459.200
7906	7905	1	0.1400	392459.200
7907	7906	1	0.1433	357313.600
7908	7907	1	0.1345	459403.200
7909	7908	1	0.1345	459403.200
7910	7909	1	0.1345	459403.200
7911	7910	1	0.1345	459403.200
7912	7911	1	0.1345	459403.200
7913	7912	1	0.1345	459403.200
7914	7913	1	0.1345	459403.200
7915	7914	1	0.1433	357313.600
7916	7915	1	0.1340	459403.200
7917	7916	1	0.1426	334720.000
7918	7917	1	0.1157	543920.000
7919	7916	1	0.1365	459403.200
7920	7919	1	0.1367	456892.800
7921	7920	1	0.1426	334720.000
7922	7921	1	0.1157	543920.000
7923	7920	1	0.1426	334720.000
7924	7923	1	0.1157	543920.000
7925	7919	1	0.1360	284512.000
7926	7915	1	0.1510	265265.600
7927	7926	1	0.1510	265265.600
7928	7927	1	0.1400	392459.200
7929	7928	1	0.1400	392459.200
7930	7929	1	0.1400	392459.200
7931	7930	1	0.1400	392459.200
7932	7927	1	0.1400	392459.200
7933	7926	1	0.1529	224262.400
7934	7933	1	0.1360	307105.600
7935	7933	1	0.1360	307105.600
7936	7933	1	0.1360	307105.600
7937	7911	1	0.1510	265265.600
7938	7937	1	0.1529	224262.400
7939	7938	1	0.1529	224262.400
7940	7938	1	0.1529	224262.400
7941	7909	1	0.1510	265265.600
7942	7906	1	0.1400	392459.200
7943	7903	1	0.1400	392459.200
7944	7885	1	0.1090	284512.000
7945	7885	1	0.1090	284512.000
7946	7885	1	0.1090	284512.000
7947	7887	1	0.1090	284512.000
7948	7887	1	0.1090	284512.000
7949	7888	1	0.1090	284512.000
7950	7888	1	0.1090	284512.000
7951	7891	1	0.1080	307105.600
7952	7892	1	0.1080	307105.600
7953	7895	1	0.1080	307105.600
7954	7896	1	0.1080	307105.600
7955	7898	1	0.14	0.0
7956	7899	1	0.1080	307105.600
7957	7900	1	0.1080	307105.600
7958	7901	1	0.1080	307105.600
7959	7902	1	0.1080	307105.600
7960	7904	1	0.1080	307105.600
7961	7905	1	0.1080	307105.600
7962	7907	1	0.1080	284512.000
7963	7908	1	0.1080	284512.000
7964	7910	1	0.1050	345196.736
7965	7912	1	0.1080	284512.000
7966	7913	1	0.1080	284512.000
7967	7914	1	0.1080	284512.000
7968	7928	1	0.1080	307105.600
7969	7929	1	0.1080	307105.600
7970	7930	1	0.1080	307105.600
7971	7931	1	0.1080	307105.600
7972	7932	1	0.1080	307105.600
7973	7937	1	0.1090	284512.000
7974	7937	1	0.1090	284512.000
7975	7939	1	0.1090	284512.000
7976	7939	1	0.1090	284512.000
7977	7939	1	0.1090	284512.000
7978	7940	1	0.1090	284512.000
7979	7940	1	0.1090	284512.000
7980	7940	1	0.1090	284512.000
7981	7941	1	0.1090	284512.000
7982	7941	1	0.1090	284512.000
7983	7942	1	0.1080	307105.600
7984	7943	1	0.1080	307105.600
7900	7899	1	0.1400	392459.200
7902	7901	1	0.1400	392459.200
7926	7925	1	0.1410	267776.000
7932	7931	1	0.1400	392459.200
7941	7938	1	0.1529	224262.400
7943	7942	1	0.1400	392459.200
7986	7985	1	0.1448	319657.600
7987	7986	1	0.1448	319657.600
7988	7987	1	0.1529	224262.400
7989	7988	1	0.1410	267776.000
7990	7989	1	0.1364	376560.000
7991	7990	1	0.1400	392459.200
7992	7991	1	0.1400	392459.200
7993	7992	1	0.1400	392459.200
7994	7993	1	0.1460	322168.000
7995	7994	1	0.1400	392459.200
7996	7995	1	0.1400	392459.200
7997	7996	1	0.1400	392459.200
7998	7997	1	0.14	0.0
7999	7997	1	0.1400	392459.200
8000	7994	1	0.1400	392459.200
8001	7993	1	0.1400	392459.200
8002	7990	1	0.1400	392459.200
8003	7986	1	0.1340	402500.800
8004	8003	1	0.1400	392459.200
8005	8004	1	0.1400	392459.200
8006	8005	1	0.1400	392459.200
8007	8006	1	0.1433	357313.600
8008	8007	1	0.1345	459403.200
8009	8008	1	0.1345	459403.200
8010	8009	1	0.1345	459403.200
8011	8010	1	0.1345	459403.200
8012	8011	1	0.1345	459403.200
8013	8012	1	0.1345	459403.200
8014	8013	1	0.1345	459403.200
8015	8014	1	0.1433	357313.600
8016	8015	1	0.1340	459403.200
8017	8016	1	0.1426	334720.000
8018	8017	1	0.1157	543920.000
8019	8016	1	0.1365	459403.200
8020	8019	1	0.1367	456892.800
8021	8020	1	0.1426	334720.000
8022	8021	1	0.1157	543920.000
8023	8020	1	0.1426	334720.000
8024	8023	1	0.1157	543920.000
8025	8019	1	0.1360	284512.000
8026	8015	1	0.1510	265265.600
8027	8026	1	0.1510	265265.600
8028	8027	1	0.1400	392459.200
8029	8028	1	0.1400	392459.200
8030	8029	1	0.1400	392459.200
8031	8030	1	0.1400	392459.200
8032	8027	1	0.1400	392459.200
8033	8026	1	0.1529	224262.400
8034	8033	1	0.1360	307105.600
8035	8033	1	0.1360	307105.600
8036	8033	1	0.1360	307105.600
8037	8011	1	0.1510	265265.600
8038	8037	1	0.1529	224262.400
8039	8038	1	0.1529	224262.400
8040	8038	1	0.1529	224262.400
8041	8009	1	0.1510	265265.600
8042	8006	1	0.1400	392459.200
8043	8003	1	0.1400	392459.200
8044	7985	1	0.1090	284512.000
8045	7985	1	0.1090	284512.000
8046	7985	1	0.1090	284512.000
8047	7987	1	0.1090	284512.000
8048	7987	1	0.1090	284512.000
8049	7988	1	0.1090	284512.000
8050	7988	1	0.1090	284512.000
8051	7991	1	0.1080	307105.600
8052	7992	1	0.1080	307105.600
8053	7995	1	0.1080	307105.600
8054	7996	1	0.1080	307105.600
8055	7998	1	0.14	0.0
8056	7999	1	0.1080	307105.600
8057	8000	1	0.1080	307105.600
8058	8001	1	0.1080	307105.600
8059	8002	1	0.1080	307105.600
8060	8004	1	0.1080	307105.600
8061	8005	1	0.1080	307105.600
8062	8007	1	0.1080	284512.000
8063	8008	1	0.1080	284512.000
8064	8010	1	0.1050	345196.736
8065	8012	1	0.1080	284512.000
8066	8013	1	0.1080	284512.000
8067	8014	1	0.1080	284512.000
8068	8028	1	0.1080	307105.600
8069	8029	1	0.1080	307105.600
8070	8030	1	0.1080	307105.600
8071	8031	1	0.1080	307105.600
8072	8032	1	0.1080	307105.600
8073	8037	1	0.1090	284512.000
8074	8037	1	0.1090	284512.000
8075	8039	1	0.1090	284512.000
8076	8039	1	0.1090	284512.000
8077	8039	1	0.1090	284512.000
8078	8040	1	0.1090	284512.000
8079	8040	1	0.1090	284512.000
8080	8040	1	0.1090	284512.000
8081	8041	1	0.1090	284512.000
8082	8041	1	0.1090	284512.000
8083	8042	1	0.1080	307105.600
8084	8043	1	0.1080	307105.600
8000	7999	1	0.1400	392459.200
8002	8001	1	0.1400	392459.200
8026	8025	1	0.1410	267776.000
8032	8031	1	0.1400	392459.200
8041	8038	1	0.1529	224262.400
8043	8042	1	0.1400	392459.200
8086	8085	1	0.1448	319657.600
8087	8086	1	0.1448	319657.600
8088	8087	1	0.1529	224262.400
8089	8088	1	0.1410	267776.000
8090	8089	1	0.1364	376560.000
8091	8090	1	0.1400	392459.200
8092	8091	1	0.1400	392459.200
8093	8092	1	0.1400	392459.200
8094	8093	1	0.1460	322168.000
8095	8094	1	0.1400	392459.200
8096	8095	1	0.1400	392459.200
8097	8096	1	0.1400	392459.200
8098	8097	1	0.14	0.0
8099	8097	1	0.1400	392459.200
8100	8094	1	0.1400	392459.200
8101	8093	1	0.1400	392459.200
8102	8090	1	0.1400	392459.200
8103	8086	1	0.1340	402500.800
8104	8103	1	0.1400	392459.200
8105	8104	1	0.1400	392459.200
8106	8105	1	0.1400	392459.200
8107	8106	1	0.1433	357313.600
8108	8107	1	0.1345	459403.200
8109	8108	1	0.1345	459403.200
8110	8109	1	0.1345	459403.200
8111	8110	1	0.1345	459403.200
8112	8111	1	0.1345	459403.200
8113	8112	1	0.1345	459403.200
8114	8113	1	0.1345	459403.200
8115	8114	1	0.1433	357313.600
8116	8115	1	0.1340	459403.200
8117	8116	1	0.1426	334720.000
8118	8117	1	0.1157	543920.000
8119	8116	1	0.1365	459403.200
8120	8119	1	0.1367	456892.800
8121	8120	1	0.1426	334720.000
8122	8121	1	0.1157	543920.000
8123	8120	1	0.1426	334720.000
8124	8123	1	0.1157	543920.000
8125	8119	1	0.1360	284512.000
8126	8115	1	0.1510	265265.600
8127	8126	1	0.1510	265265.600
8128	8127	1	0.1400	392459.200
8129	8128	1	0.1400	392459.200
8130	8129	1	0.1400	392459.200
8131	8130	1	0.1400	392459.200
8132	8127	1	0.1400	392459.200
8133	8126	1	0.1529	224262.400
8134	8133	1	0.1360	307105.600
8135	8133	1	0.1360	307105.600
8136	8133	1	0.1360	307105.600
8137	8111	1	0.1510	265265.600
8138	8137	1	0.1529	224262.400
8139	8138	1	0.1529	224262.400
8140	8138	1	0.1529	224262.400
8141	8109	1	0.1510	265265.600
8142	8106	1	0.1400	392459.200
8143	8103	1	0.1400	392459.200
8144	8085	1	0.1090	284512.000
8145	8085	1	0.1090	284512.000
8146	8085	1	0.1090	284512.000
8147	8087	1	0.1090	284512.000
8148	8087	1	0.1090	284512.000
8149	8088	1	0.1090	284512.000
8150	8088	1	0.1090	284512.000
8151	8091	1	0.1080	307105.600
8152	8092	1	0.1080	307105.600
8153	8095	1	0.1080	307105.600
8154	8096	1	0.1080	307105.600
8155	8098	1	0.14	0.0
8156	8099	1	0.1080	307105.600
8157	8100	1	0.1080	307105.600
8158	8101	1	0.1080	307105.600
8159	8102	1	0.1080	307105.600
8160	8104	1	0.1080	307105.600
8161	8105	1	0.1080	307105.600
8162	8107	1	0.1080	284512.000
8163	8108	1	0.1080	284512.000
8164	8110	1	0.1050	345196.736
8165	8112	1	0.1080	284512.000
8166	8113	1	0.1080	284512.000
8167	8114	1	0.1080	284512.000
8168	8128	1	0.1080	307105.600
8169	8129	1	0.1080	307105.600
8170	8130	1	0.1080	307105.600
8171	8131	1	0.1080	307105.600
8172	8132	1	0.1080	307105.600
8173	8137	1	0.1090	284512.000
8174	8137	1	0.1090	284512.000
8175	8139	1	0.1090	284512.000
8176	8139	1	0.1090	284512.000
8177	8139	1	0.1090	284512.000
8178	8140	1	0.1090	284512.000
8179	8140	1	0.1090	284512.000
8180	8140	1	0.1090	284512.000
8181	8141	1	0.1090	284512.000
8182	8141	1	0.1090	284512.000
8183	8142	1	0.1080	307105.600
8184	8143	1	0.1080	307105.600
8100	8099	1	0.1400	392459.200
8102	8101	1	0.1400	392459.200
8126	8125	1	0.1410	267776.000
8132	8131	1	0.1400	392459.200
8141	8138	1	0.1529	224262.400
8143	8142	1	0.1400	392459.200
8186	8185	1	0.1448	319657.600
8187	8186	1	0.1448	319657.600
8188	8187	1	0.1529	224262.400
8189	8188	1	0.1410	267776.000
8190	8189	1	0.1364	376560.000
8191	8190	1	0.1400	392459.200
8192	8191	1	0.1400	392459.200
8193	8192	1	0.1400	392459.200
8194	8193	1	0.1460	322168.000
8195	8194	1	0.1400	392459.200
8196	8195	1	0.1400	392459.200
8197	8196	1	0.1400	392459.200
8198	8197	1	0.14	0.0
8199	8197	1	0.1400	392459.200
8200	8194	1	0.1400	392459.200
8201	8193	1	0.1400	392459.200
8202	8190	1	0.1400	392459.200
8203	8186	1	0.1340	402500.800
8204	8203	1	0.1400	392459.200
8205	8204	1	0.1400	392459.200
8206	8205	1	0.1400	392459.200
8207	8206	1	0.1433	357313.600
8208	8207	1	0.1345	459403.200
8209	8208	1	0.1345	459403.200
8210	8209	1	0.1345	459403.200
8211	8210	1	0.1345	459403.200
8212	8211	1	0.1345	459403.200
8213	8212	1	0.1345	459403.200
8214	8213	1	0.1345	459403.200
8215	8214	1	0.1433	357313.600
8216	8215	1	0.1340	459403.200
8217	8216	1	0.1426	334720.000
8218	8217	1	0.1157	543920.000
8219	8216	1	0.1365	459403.200
8220	8219	1	0.1367	456892.800
8221	8220	1	0.1426	334720.000
8222	8221	1	0.1157	543920.000
8223	8220	1	0.1426	334720.000
8224	8223	1	0.1157	543920.000
8225	8219	1	0.1360	284512.000
8226	8215	1	0.1510	265265.600
8227	8226	1	0.1510	265265.600
8228	8227	1	0.1400	392459.200
8229	8228	1	0.1400	392459.200
8230	8229	1	0.1400	392459.200
8231	8230	1	0.1400	392459.200
8232	8227	1	0.1400	392459.200
8233	8226	1	0.1529	224262.400
8234	8233	1	0.1360	307105.600
8235	8233	1	0.1360	307105.600
8236	8233	1	0.1360	307105.600
8237	8211	1	0.1510	265265.600
8238	8237	1	0.1529	224262.400
8239	8238	1	0.1529	224262.400
8240	8238	1	0.1529	224262.400
8241	8209	1	0.1510	265265.600
8242	8206	1	0.1400	392459.200
8243	8203	1	0.1400	392459.200
8244	8185	1	0.1090	284512.000
8245	8185	1	0.1090	284512.000
8246	8185	1	0.1090	284512.000
8247	8187	1	0.1090	284512.000
8248	8187	1	0.1090	284512.000
8249	8188	1	0.1090	284512.000
8250	8188	1	0.1090	284512.000
8251	8191	1	0.1080	307105.600
8252	8192	1	0.1080	307105.600
8253	8195	1	0.1080	307105.600
8254	8196	1	0.1080	307105.600
8255	8198	1	0.14	0.0
8256	8199	1	0.1080	307105.600
8257	8200	1	0.1080	307105.600
8258	8201	1	0.1080	307105.600
8259	8202	1	0.1080	307105.600
8260	8204	1	0.1080	307105.600
8261	8205	1	0.1080	307105.600
8262	8207	1	0.1080	284512.000
8263	8208	1	0.1080	284512.000
8264	8210	1	0.1050	345196.736
8265	8212	1	0.1080	284512.000
8266	8213	1	0.1080	284512.000
8267	8214	1	0.1080	284512.000
8268	8228	1	0.1080	307105.600
8269	8229	1	0.1080	307105.600
8270	8230	1	0.1080	307105.600
8271	8231	1	0.1080	307105.600
8272	8232	1	0.1080	307105.600
8273	8237	1	0.1090	284512.000
8274	8237	1	0.1090	284512.000
8275	8239	1	0.1090	284512.000
8276	8239	1	0.1090	284512.000
8277	8239	1	0.1090	284512.000
8278	8240	1	0.1090	284512.000
8279	8240	1	0.1090	284512.000
8280	8240	1	0.1090	284512.000
8281	8241	1	0.1090	284512.000
8282	8241	1	0.1090	284512.000
8283	8242	1	0.1080	307105.600
8284	8243	1	0.1080	307105.600
8200	8199	1	0.1400	392459.200
8202	8201	1	0.1400	392459.200
8226	8225	1	0.1410	267776.000
8232	8231	1	0.1400	392459.200
8241	8238	1	0.1529	224262.400
8243	8242	1	0.1400	392459.200
8286	8285	1	0.1448	319657.600
8287	8286	1	0.1448	319657.600
8288	8287	1	0.1529	224262.400
8289	8288	1	0.1410	267776.000
8290	8289	1	0.1364	376560.000
8291	8290	1	0.1400	392459.200
8292	8291	1	0.1400	392459.200
8293	8292	1	0.1400	392459.200
8294	8293	1	0.1460	322168.000
8295	8294	1	0.1400	392459.200
8296	8295	1	0.1400	392459.200
8297	8296	1	0.1400	392459.200
8298	8297	1	0.14	0.0
8299	8297	1	0.1400	392459.200
8300	8294	1	0.1400	392459.200
8301	8293	1	0.1400	392459.200
8302	8290	1	0.1400	392459.200
8303	8286	1	0.1340	402500.800
8304	8303	1	0.1400	392459.200
8305	8304	1	0.1400	392459.200
8306	8305	1	0.1400	392459.200
8307	8306	1	0.1433	357313.600
8308	8307	1	0.1345	459403.200
8309	8308	1	0.1345	459403.200
8310	8309	1	0.1345	459403.200
8311	8310	1	0.1345	459403.200
8312	8311	1	0.1345	459403.200
8313	8312	1	0.1345	459403.200
8314	8313	1	0.1345	459403.200
8315	8314	1	0.1433	357313.600
8316	8315	1	0.1340	459403.200
8317	8316	1	0.1426	334720.000
8318	8317	1	0.1157	543920.000
8319	8316	1	0.1365	459403.200
8320	8319	1	0.1367	456892.800
8321	8320	1	0.1426	334720.000
8322	8321	1	0.1157	543920.000
8323	8320	1	0.1426	334720.000
8324	8323	1	0.1157	543920.000
8325	8319	1	0.1360	284512.000
8326	8315	1	0.1510	265265.600
8327	8326	1	0.1510	265265.600
8328	8327	1	0.1400	392459.200
8329	8328	1	0.1400	392459.200
8330	8329	1	0.1400	392459.200
8331	8330	1	0.1400	392459.200
8332	8327	1	0.1400	392459.200
8333	8326	1	0.1529	224262.400
8334	8333	1	0.1360	307105.600
8335	8333	1	0.1360	307105.600
8336	8333	1	0.1360	307105.600
8337	8311	1	0.1510	265265.600
8338	8337	1	0.1529	224262.400
8339	8338	1	0.1529	224262.400
8340	8338	1	0.1529	224262.400
8341	8309	1	0.1510	265265.600
8342	8306	1	0.1400	392459.200
8343	8303	1	0.1400	392459.200
8344	8285	1	0.1090	284512.000
8345	8285	1	0.1090	284512.000
8346	8285	1	0.1090	284512.000
8347	8287	1	0.1090	284512.000
8348	8287	1	0.1090	284512.000
8349	8288	1	0.1090	284512.000
8350	8288	1	0.1090	284512.000
8351	8291	1	0.1080	307105.600
8352	8292	1	0.1080	307105.600
8353	8295	1	0.1080	307105.600
8354	8296	1	0.1080	307105.600
8355	8298	1	0.14	0.0
8356	8299	1	0.1080	307105.600
8357	8300	1	0.1080	307105.600
8358	8301	1	0.1080	307105.600
8359	8302	1	0.1080	307105.600
8360	8304	1	0.1080	307105.600
8361	8305	1	0.1080	307105.600
8362	8307	1	0.1080	284512.000
8363	8308	1	0.1080	284512.000
8364	8310	1	0.1050	345196.736
8365	8312	1	0.1080	284512.000
8366	8313	1	0.1080	284512.000
8367	8314	1	0.1080	284512.000
8368	8328	1	0.1080	307105.600
8369	8329	1	0.1080	307105.600
8370	8330	1	0.1080	307105.600
8371	8331	1	0.1080	307105.600
8372	8332	1	0.1080	307105.600
8373	8337	1	0.1090	284512.000
8374	8337	1	0.1090	284512.000
8375	8339	1	0.1090	284512.000
8376	8339	1	0.1090	284512.000
8377	8339	1	0.1090	284512.000
8378	8340	1	0.1090	284512.000
8379	8340	1	0.1090	284512.000
8380	8340	1	0.1090	284512.000
8381	8341	1	0.1090	284512.000
8382	8341	1	0.1090	284512.000
8383	8342	1	0.1080	307105.600
8384	8343	1	0.1080	307105.600
8300	8299	1	0.1400	392459.200
8302	8301	1	0.1400	392459.200
8326	8325	1	0.1410	267776.000
8332	8331	1	0.1400	392459.200
8341	8338	1	0.1529	224262.400
8343	8342	1	0.1400	392459.200

;periodic bonds
2	1997	1	0.164	312963.2
30	2097	1	0.164	312963.2
58	2197	1	0.164	312963.2
86	2297	1	0.164	312963.2
114	2397	1	0.164	312963.2
142	2497	1	0.164	312963.2
170	2597	1	0.164	312963.2
198	2697	1	0.164	312963.2
226	2797	1	0.164	312963.2
254	2897	1	0.164	312963.2
282	2997	1	0.164	312963.2
310	3097	1	0.164	312963.2
338	3197	1	0.164	312963.2
366	3297	1	0.164	312963.2
394	3397	1	0.164	312963.2
422	3497	1	0.164	312963.2
450	3597	1	0.164	312963.2
478	3697	1	0.164	312963.2
506	3797	1	0.164	312963.2
534	3897	1	0.164	312963.2
562	3997	1	0.164	312963.2
590	4097	1	0.164	312963.2
618	4197	1	0.164	312963.2
646	4297	1	0.164	312963.2
674	4397	1	0.164	312963.2
702	4497	1	0.164	312963.2
730	4597	1	0.164	312963.2
758	4697	1	0.164	312963.2
786	4797	1	0.164	312963.2
814	4897	1	0.164	312963.2
842	4997	1	0.164	312963.2
870	5097	1	0.164	312963.2
898	5197	1	0.164	312963.2
926	5297	1	0.164	312963.2
954	5397	1	0.164	312963.2
982	5497	1	0.164	312963.2
1010	5597	1	0.164	312963.2
1038	5697	1	0.164	312963.2
1066	5797	1	0.164	312963.2
1094	5897	1	0.164	312963.2
1122	5997	1	0.164	312963.2
1150	6097	1	0.164	312963.2
1178	6197	1	0.164	312963.2
1206	6297	1	0.164	312963.2
1234	6397	1	0.164	312963.2
1262	6497	1	0.164	312963.2
1290	6597	1	0.164	312963.2
1318	6697	1	0.164	312963.2
1346	6797	1	0.164	312963.2
1374	6897	1	0.164	312963.2
1402	6997	1	0.164	312963.2
1430	7097	1	0.164	312963.2
1458	7197	1	0.164	312963.2
1486	7297	1	0.164	312963.2
1514	7397	1	0.164	312963.2
1542	7497	1	0.164	312963.2
1570	7597	1	0.164	312963.2
1598	7697	1	0.164	312963.2
1626	7797	1	0.164	312963.2
1654	7897	1	0.164	312963.2
1682	7997	1	0.164	312963.2
1710	8097	1	0.164	312963.2
1738	8197	1	0.164	312963.2
1766	8297	1	0.164	312963.2

[ angles ]
1	4	5	1	180.000	167.360
4	5	6	1	110.000	502.080
4	5	7	1	110.000	502.080
4	5	8	1	110.000	502.080
5	8	9	1	180.000	167.360
8	9	10	1	109.500	355.640
8	9	11	1	109.500	355.640
8	9	12	1	110.000	502.080
9	12	13	1	180.000	167.360
12	13	14	1	110.000	502.080
12	13	15	1	110.000	502.080
13	15	16	1	180.000	167.360
15	16	17	1	110.000	502.080
16	17	18	1	180.000	167.360
17	18	19	1	109.500	355.640
17	18	20	1	109.500	355.640
19	18	20	1	109.500	292.880
14	13	15	1	110.000	502.080
10	9	11	1	109.500	292.880
6	5	8	1	110.000	502.080
2	1	3	1	110.000	502.080
3	1	4	1	109.500	355.640
2	1	4	1	110.000	502.080
11	9	12	1	109.500	355.640
6	5	7	1	110.000	502.080
7	5	8	1	110.000	502.080
10	9	12	1	109.500	355.640
17	18	21	1	110.000	502.080
12	13	22	1	110.000	502.080
13	22	23	1	180.000	167.360
22	23	24	1	110.000	502.080
23	24	25	1	180.000	167.360
24	25	26	1	109.500	355.640
24	25	27	1	109.500	355.640
24	25	28	1	110.000	502.080
15	13	22	1	110.000	502.080
26	25	27	1	109.500	292.880
26	25	27	1	109.500	292.880
14	13	22	1	109.500	355.640
28	25	27	1	109.500	355.640
20	18	21	1	109.500	355.640
19	18	21	1	109.500	355.640
29	32	33	1	180.000	167.360
32	33	34	1	110.000	502.080
32	33	35	1	110.000	502.080
32	33	36	1	110.000	502.080
33	36	37	1	180.000	167.360
36	37	38	1	109.500	355.640
36	37	39	1	109.500	355.640
36	37	40	1	110.000	502.080
37	40	41	1	180.000	167.360
40	41	42	1	110.000	502.080
40	41	43	1	110.000	502.080
41	43	44	1	180.000	167.360
43	44	45	1	110.000	502.080
44	45	46	1	180.000	167.360
45	46	47	1	109.500	355.640
45	46	48	1	109.500	355.640
47	46	48	1	109.500	292.880
42	41	43	1	110.000	502.080
38	37	39	1	109.500	292.880
34	33	36	1	110.000	502.080
30	29	31	1	110.000	502.080
31	29	32	1	109.500	355.640
30	29	32	1	110.000	502.080
39	37	40	1	109.500	355.640
34	33	35	1	110.000	502.080
35	33	36	1	110.000	502.080
38	37	40	1	109.500	355.640
45	46	49	1	110.000	502.080
40	41	50	1	110.000	502.080
41	50	51	1	180.000	167.360
50	51	52	1	110.000	502.080
51	52	53	1	180.000	167.360
52	53	54	1	109.500	355.640
52	53	55	1	109.500	355.640
52	53	56	1	110.000	502.080
43	41	50	1	110.000	502.080
54	53	55	1	109.500	292.880
54	53	55	1	109.500	292.880
42	41	50	1	109.500	355.640
56	53	55	1	109.500	355.640
48	46	49	1	109.500	355.640
47	46	49	1	109.500	355.640
57	60	61	1	180.000	167.360
60	61	62	1	110.000	502.080
60	61	63	1	110.000	502.080
60	61	64	1	110.000	502.080
61	64	65	1	180.000	167.360
64	65	66	1	109.500	355.640
64	65	67	1	109.500	355.640
64	65	68	1	110.000	502.080
65	68	69	1	180.000	167.360
68	69	70	1	110.000	502.080
68	69	71	1	110.000	502.080
69	71	72	1	180.000	167.360
71	72	73	1	110.000	502.080
72	73	74	1	180.000	167.360
73	74	75	1	109.500	355.640
73	74	76	1	109.500	355.640
75	74	76	1	109.500	292.880
70	69	71	1	110.000	502.080
66	65	67	1	109.500	292.880
62	61	64	1	110.000	502.080
58	57	59	1	110.000	502.080
59	57	60	1	109.500	355.640
58	57	60	1	110.000	502.080
67	65	68	1	109.500	355.640
62	61	63	1	110.000	502.080
63	61	64	1	110.000	502.080
66	65	68	1	109.500	355.640
73	74	77	1	110.000	502.080
68	69	78	1	110.000	502.080
69	78	79	1	180.000	167.360
78	79	80	1	110.000	502.080
79	80	81	1	180.000	167.360
80	81	82	1	109.500	355.640
80	81	83	1	109.500	355.640
80	81	84	1	110.000	502.080
71	69	78	1	110.000	502.080
82	81	83	1	109.500	292.880
82	81	83	1	109.500	292.880
70	69	78	1	109.500	355.640
84	81	83	1	109.500	355.640
76	74	77	1	109.500	355.640
75	74	77	1	109.500	355.640
85	88	89	1	180.000	167.360
88	89	90	1	110.000	502.080
88	89	91	1	110.000	502.080
88	89	92	1	110.000	502.080
89	92	93	1	180.000	167.360
92	93	94	1	109.500	355.640
92	93	95	1	109.500	355.640
92	93	96	1	110.000	502.080
93	96	97	1	180.000	167.360
96	97	98	1	110.000	502.080
96	97	99	1	110.000	502.080
97	99	100	1	180.000	167.360
99	100	101	1	110.000	502.080
100	101	102	1	180.000	167.360
101	102	103	1	109.500	355.640
101	102	104	1	109.500	355.640
103	102	104	1	109.500	292.880
98	97	99	1	110.000	502.080
94	93	95	1	109.500	292.880
90	89	92	1	110.000	502.080
86	85	87	1	110.000	502.080
87	85	88	1	109.500	355.640
86	85	88	1	110.000	502.080
95	93	96	1	109.500	355.640
90	89	91	1	110.000	502.080
91	89	92	1	110.000	502.080
94	93	96	1	109.500	355.640
101	102	105	1	110.000	502.080
96	97	106	1	110.000	502.080
97	106	107	1	180.000	167.360
106	107	108	1	110.000	502.080
107	108	109	1	180.000	167.360
108	109	110	1	109.500	355.640
108	109	111	1	109.500	355.640
108	109	112	1	110.000	502.080
99	97	106	1	110.000	502.080
110	109	111	1	109.500	292.880
110	109	111	1	109.500	292.880
98	97	106	1	109.500	355.640
112	109	111	1	109.500	355.640
104	102	105	1	109.500	355.640
103	102	105	1	109.500	355.640
113	116	117	1	180.000	167.360
116	117	118	1	110.000	502.080
116	117	119	1	110.000	502.080
116	117	120	1	110.000	502.080
117	120	121	1	180.000	167.360
120	121	122	1	109.500	355.640
120	121	123	1	109.500	355.640
120	121	124	1	110.000	502.080
121	124	125	1	180.000	167.360
124	125	126	1	110.000	502.080
124	125	127	1	110.000	502.080
125	127	128	1	180.000	167.360
127	128	129	1	110.000	502.080
128	129	130	1	180.000	167.360
129	130	131	1	109.500	355.640
129	130	132	1	109.500	355.640
131	130	132	1	109.500	292.880
126	125	127	1	110.000	502.080
122	121	123	1	109.500	292.880
118	117	120	1	110.000	502.080
114	113	115	1	110.000	502.080
115	113	116	1	109.500	355.640
114	113	116	1	110.000	502.080
123	121	124	1	109.500	355.640
118	117	119	1	110.000	502.080
119	117	120	1	110.000	502.080
122	121	124	1	109.500	355.640
129	130	133	1	110.000	502.080
124	125	134	1	110.000	502.080
125	134	135	1	180.000	167.360
134	135	136	1	110.000	502.080
135	136	137	1	180.000	167.360
136	137	138	1	109.500	355.640
136	137	139	1	109.500	355.640
136	137	140	1	110.000	502.080
127	125	134	1	110.000	502.080
138	137	139	1	109.500	292.880
138	137	139	1	109.500	292.880
126	125	134	1	109.500	355.640
140	137	139	1	109.500	355.640
132	130	133	1	109.500	355.640
131	130	133	1	109.500	355.640
141	144	145	1	180.000	167.360
144	145	146	1	110.000	502.080
144	145	147	1	110.000	502.080
144	145	148	1	110.000	502.080
145	148	149	1	180.000	167.360
148	149	150	1	109.500	355.640
148	149	151	1	109.500	355.640
148	149	152	1	110.000	502.080
149	152	153	1	180.000	167.360
152	153	154	1	110.000	502.080
152	153	155	1	110.000	502.080
153	155	156	1	180.000	167.360
155	156	157	1	110.000	502.080
156	157	158	1	180.000	167.360
157	158	159	1	109.500	355.640
157	158	160	1	109.500	355.640
159	158	160	1	109.500	292.880
154	153	155	1	110.000	502.080
150	149	151	1	109.500	292.880
146	145	148	1	110.000	502.080
142	141	143	1	110.000	502.080
143	141	144	1	109.500	355.640
142	141	144	1	110.000	502.080
151	149	152	1	109.500	355.640
146	145	147	1	110.000	502.080
147	145	148	1	110.000	502.080
150	149	152	1	109.500	355.640
157	158	161	1	110.000	502.080
152	153	162	1	110.000	502.080
153	162	163	1	180.000	167.360
162	163	164	1	110.000	502.080
163	164	165	1	180.000	167.360
164	165	166	1	109.500	355.640
164	165	167	1	109.500	355.640
164	165	168	1	110.000	502.080
155	153	162	1	110.000	502.080
166	165	167	1	109.500	292.880
166	165	167	1	109.500	292.880
154	153	162	1	109.500	355.640
168	165	167	1	109.500	355.640
160	158	161	1	109.500	355.640
159	158	161	1	109.500	355.640
169	172	173	1	180.000	167.360
172	173	174	1	110.000	502.080
172	173	175	1	110.000	502.080
172	173	176	1	110.000	502.080
173	176	177	1	180.000	167.360
176	177	178	1	109.500	355.640
176	177	179	1	109.500	355.640
176	177	180	1	110.000	502.080
177	180	181	1	180.000	167.360
180	181	182	1	110.000	502.080
180	181	183	1	110.000	502.080
181	183	184	1	180.000	167.360
183	184	185	1	110.000	502.080
184	185	186	1	180.000	167.360
185	186	187	1	109.500	355.640
185	186	188	1	109.500	355.640
187	186	188	1	109.500	292.880
182	181	183	1	110.000	502.080
178	177	179	1	109.500	292.880
174	173	176	1	110.000	502.080
170	169	171	1	110.000	502.080
171	169	172	1	109.500	355.640
170	169	172	1	110.000	502.080
179	177	180	1	109.500	355.640
174	173	175	1	110.000	502.080
175	173	176	1	110.000	502.080
178	177	180	1	109.500	355.640
185	186	189	1	110.000	502.080
180	181	190	1	110.000	502.080
181	190	191	1	180.000	167.360
190	191	192	1	110.000	502.080
191	192	193	1	180.000	167.360
192	193	194	1	109.500	355.640
192	193	195	1	109.500	355.640
192	193	196	1	110.000	502.080
183	181	190	1	110.000	502.080
194	193	195	1	109.500	292.880
194	193	195	1	109.500	292.880
182	181	190	1	109.500	355.640
196	193	195	1	109.500	355.640
188	186	189	1	109.500	355.640
187	186	189	1	109.500	355.640
197	200	201	1	180.000	167.360
200	201	202	1	110.000	502.080
200	201	203	1	110.000	502.080
200	201	204	1	110.000	502.080
201	204	205	1	180.000	167.360
204	205	206	1	109.500	355.640
204	205	207	1	109.500	355.640
204	205	208	1	110.000	502.080
205	208	209	1	180.000	167.360
208	209	210	1	110.000	502.080
208	209	211	1	110.000	502.080
209	211	212	1	180.000	167.360
211	212	213	1	110.000	502.080
212	213	214	1	180.000	167.360
213	214	215	1	109.500	355.640
213	214	216	1	109.500	355.640
215	214	216	1	109.500	292.880
210	209	211	1	110.000	502.080
206	205	207	1	109.500	292.880
202	201	204	1	110.000	502.080
198	197	199	1	110.000	502.080
199	197	200	1	109.500	355.640
198	197	200	1	110.000	502.080
207	205	208	1	109.500	355.640
202	201	203	1	110.000	502.080
203	201	204	1	110.000	502.080
206	205	208	1	109.500	355.640
213	214	217	1	110.000	502.080
208	209	218	1	110.000	502.080
209	218	219	1	180.000	167.360
218	219	220	1	110.000	502.080
219	220	221	1	180.000	167.360
220	221	222	1	109.500	355.640
220	221	223	1	109.500	355.640
220	221	224	1	110.000	502.080
211	209	218	1	110.000	502.080
222	221	223	1	109.500	292.880
222	221	223	1	109.500	292.880
210	209	218	1	109.500	355.640
224	221	223	1	109.500	355.640
216	214	217	1	109.500	355.640
215	214	217	1	109.500	355.640
225	228	229	1	180.000	167.360
228	229	230	1	110.000	502.080
228	229	231	1	110.000	502.080
228	229	232	1	110.000	502.080
229	232	233	1	180.000	167.360
232	233	234	1	109.500	355.640
232	233	235	1	109.500	355.640
232	233	236	1	110.000	502.080
233	236	237	1	180.000	167.360
236	237	238	1	110.000	502.080
236	237	239	1	110.000	502.080
237	239	240	1	180.000	167.360
239	240	241	1	110.000	502.080
240	241	242	1	180.000	167.360
241	242	243	1	109.500	355.640
241	242	244	1	109.500	355.640
243	242	244	1	109.500	292.880
238	237	239	1	110.000	502.080
234	233	235	1	109.500	292.880
230	229	232	1	110.000	502.080
226	225	227	1	110.000	502.080
227	225	228	1	109.500	355.640
226	225	228	1	110.000	502.080
235	233	236	1	109.500	355.640
230	229	231	1	110.000	502.080
231	229	232	1	110.000	502.080
234	233	236	1	109.500	355.640
241	242	245	1	110.000	502.080
236	237	246	1	110.000	502.080
237	246	247	1	180.000	167.360
246	247	248	1	110.000	502.080
247	248	249	1	180.000	167.360
248	249	250	1	109.500	355.640
248	249	251	1	109.500	355.640
248	249	252	1	110.000	502.080
239	237	246	1	110.000	502.080
250	249	251	1	109.500	292.880
250	249	251	1	109.500	292.880
238	237	246	1	109.500	355.640
252	249	251	1	109.500	355.640
244	242	245	1	109.500	355.640
243	242	245	1	109.500	355.640
253	256	257	1	180.000	167.360
256	257	258	1	110.000	502.080
256	257	259	1	110.000	502.080
256	257	260	1	110.000	502.080
257	260	261	1	180.000	167.360
260	261	262	1	109.500	355.640
260	261	263	1	109.500	355.640
260	261	264	1	110.000	502.080
261	264	265	1	180.000	167.360
264	265	266	1	110.000	502.080
264	265	267	1	110.000	502.080
265	267	268	1	180.000	167.360
267	268	269	1	110.000	502.080
268	269	270	1	180.000	167.360
269	270	271	1	109.500	355.640
269	270	272	1	109.500	355.640
271	270	272	1	109.500	292.880
266	265	267	1	110.000	502.080
262	261	263	1	109.500	292.880
258	257	260	1	110.000	502.080
254	253	255	1	110.000	502.080
255	253	256	1	109.500	355.640
254	253	256	1	110.000	502.080
263	261	264	1	109.500	355.640
258	257	259	1	110.000	502.080
259	257	260	1	110.000	502.080
262	261	264	1	109.500	355.640
269	270	273	1	110.000	502.080
264	265	274	1	110.000	502.080
265	274	275	1	180.000	167.360
274	275	276	1	110.000	502.080
275	276	277	1	180.000	167.360
276	277	278	1	109.500	355.640
276	277	279	1	109.500	355.640
276	277	280	1	110.000	502.080
267	265	274	1	110.000	502.080
278	277	279	1	109.500	292.880
278	277	279	1	109.500	292.880
266	265	274	1	109.500	355.640
280	277	279	1	109.500	355.640
272	270	273	1	109.500	355.640
271	270	273	1	109.500	355.640
281	284	285	1	180.000	167.360
284	285	286	1	110.000	502.080
284	285	287	1	110.000	502.080
284	285	288	1	110.000	502.080
285	288	289	1	180.000	167.360
288	289	290	1	109.500	355.640
288	289	291	1	109.500	355.640
288	289	292	1	110.000	502.080
289	292	293	1	180.000	167.360
292	293	294	1	110.000	502.080
292	293	295	1	110.000	502.080
293	295	296	1	180.000	167.360
295	296	297	1	110.000	502.080
296	297	298	1	180.000	167.360
297	298	299	1	109.500	355.640
297	298	300	1	109.500	355.640
299	298	300	1	109.500	292.880
294	293	295	1	110.000	502.080
290	289	291	1	109.500	292.880
286	285	288	1	110.000	502.080
282	281	283	1	110.000	502.080
283	281	284	1	109.500	355.640
282	281	284	1	110.000	502.080
291	289	292	1	109.500	355.640
286	285	287	1	110.000	502.080
287	285	288	1	110.000	502.080
290	289	292	1	109.500	355.640
297	298	301	1	110.000	502.080
292	293	302	1	110.000	502.080
293	302	303	1	180.000	167.360
302	303	304	1	110.000	502.080
303	304	305	1	180.000	167.360
304	305	306	1	109.500	355.640
304	305	307	1	109.500	355.640
304	305	308	1	110.000	502.080
295	293	302	1	110.000	502.080
306	305	307	1	109.500	292.880
306	305	307	1	109.500	292.880
294	293	302	1	109.500	355.640
308	305	307	1	109.500	355.640
300	298	301	1	109.500	355.640
299	298	301	1	109.500	355.640
309	312	313	1	180.000	167.360
312	313	314	1	110.000	502.080
312	313	315	1	110.000	502.080
312	313	316	1	110.000	502.080
313	316	317	1	180.000	167.360
316	317	318	1	109.500	355.640
316	317	319	1	109.500	355.640
316	317	320	1	110.000	502.080
317	320	321	1	180.000	167.360
320	321	322	1	110.000	502.080
320	321	323	1	110.000	502.080
321	323	324	1	180.000	167.360
323	324	325	1	110.000	502.080
324	325	326	1	180.000	167.360
325	326	327	1	109.500	355.640
325	326	328	1	109.500	355.640
327	326	328	1	109.500	292.880
322	321	323	1	110.000	502.080
318	317	319	1	109.500	292.880
314	313	316	1	110.000	502.080
310	309	311	1	110.000	502.080
311	309	312	1	109.500	355.640
310	309	312	1	110.000	502.080
319	317	320	1	109.500	355.640
314	313	315	1	110.000	502.080
315	313	316	1	110.000	502.080
318	317	320	1	109.500	355.640
325	326	329	1	110.000	502.080
320	321	330	1	110.000	502.080
321	330	331	1	180.000	167.360
330	331	332	1	110.000	502.080
331	332	333	1	180.000	167.360
332	333	334	1	109.500	355.640
332	333	335	1	109.500	355.640
332	333	336	1	110.000	502.080
323	321	330	1	110.000	502.080
334	333	335	1	109.500	292.880
334	333	335	1	109.500	292.880
322	321	330	1	109.500	355.640
336	333	335	1	109.500	355.640
328	326	329	1	109.500	355.640
327	326	329	1	109.500	355.640
337	340	341	1	180.000	167.360
340	341	342	1	110.000	502.080
340	341	343	1	110.000	502.080
340	341	344	1	110.000	502.080
341	344	345	1	180.000	167.360
344	345	346	1	109.500	355.640
344	345	347	1	109.500	355.640
344	345	348	1	110.000	502.080
345	348	349	1	180.000	167.360
348	349	350	1	110.000	502.080
348	349	351	1	110.000	502.080
349	351	352	1	180.000	167.360
351	352	353	1	110.000	502.080
352	353	354	1	180.000	167.360
353	354	355	1	109.500	355.640
353	354	356	1	109.500	355.640
355	354	356	1	109.500	292.880
350	349	351	1	110.000	502.080
346	345	347	1	109.500	292.880
342	341	344	1	110.000	502.080
338	337	339	1	110.000	502.080
339	337	340	1	109.500	355.640
338	337	340	1	110.000	502.080
347	345	348	1	109.500	355.640
342	341	343	1	110.000	502.080
343	341	344	1	110.000	502.080
346	345	348	1	109.500	355.640
353	354	357	1	110.000	502.080
348	349	358	1	110.000	502.080
349	358	359	1	180.000	167.360
358	359	360	1	110.000	502.080
359	360	361	1	180.000	167.360
360	361	362	1	109.500	355.640
360	361	363	1	109.500	355.640
360	361	364	1	110.000	502.080
351	349	358	1	110.000	502.080
362	361	363	1	109.500	292.880
362	361	363	1	109.500	292.880
350	349	358	1	109.500	355.640
364	361	363	1	109.500	355.640
356	354	357	1	109.500	355.640
355	354	357	1	109.500	355.640
365	368	369	1	180.000	167.360
368	369	370	1	110.000	502.080
368	369	371	1	110.000	502.080
368	369	372	1	110.000	502.080
369	372	373	1	180.000	167.360
372	373	374	1	109.500	355.640
372	373	375	1	109.500	355.640
372	373	376	1	110.000	502.080
373	376	377	1	180.000	167.360
376	377	378	1	110.000	502.080
376	377	379	1	110.000	502.080
377	379	380	1	180.000	167.360
379	380	381	1	110.000	502.080
380	381	382	1	180.000	167.360
381	382	383	1	109.500	355.640
381	382	384	1	109.500	355.640
383	382	384	1	109.500	292.880
378	377	379	1	110.000	502.080
374	373	375	1	109.500	292.880
370	369	372	1	110.000	502.080
366	365	367	1	110.000	502.080
367	365	368	1	109.500	355.640
366	365	368	1	110.000	502.080
375	373	376	1	109.500	355.640
370	369	371	1	110.000	502.080
371	369	372	1	110.000	502.080
374	373	376	1	109.500	355.640
381	382	385	1	110.000	502.080
376	377	386	1	110.000	502.080
377	386	387	1	180.000	167.360
386	387	388	1	110.000	502.080
387	388	389	1	180.000	167.360
388	389	390	1	109.500	355.640
388	389	391	1	109.500	355.640
388	389	392	1	110.000	502.080
379	377	386	1	110.000	502.080
390	389	391	1	109.500	292.880
390	389	391	1	109.500	292.880
378	377	386	1	109.500	355.640
392	389	391	1	109.500	355.640
384	382	385	1	109.500	355.640
383	382	385	1	109.500	355.640
393	396	397	1	180.000	167.360
396	397	398	1	110.000	502.080
396	397	399	1	110.000	502.080
396	397	400	1	110.000	502.080
397	400	401	1	180.000	167.360
400	401	402	1	109.500	355.640
400	401	403	1	109.500	355.640
400	401	404	1	110.000	502.080
401	404	405	1	180.000	167.360
404	405	406	1	110.000	502.080
404	405	407	1	110.000	502.080
405	407	408	1	180.000	167.360
407	408	409	1	110.000	502.080
408	409	410	1	180.000	167.360
409	410	411	1	109.500	355.640
409	410	412	1	109.500	355.640
411	410	412	1	109.500	292.880
406	405	407	1	110.000	502.080
402	401	403	1	109.500	292.880
398	397	400	1	110.000	502.080
394	393	395	1	110.000	502.080
395	393	396	1	109.500	355.640
394	393	396	1	110.000	502.080
403	401	404	1	109.500	355.640
398	397	399	1	110.000	502.080
399	397	400	1	110.000	502.080
402	401	404	1	109.500	355.640
409	410	413	1	110.000	502.080
404	405	414	1	110.000	502.080
405	414	415	1	180.000	167.360
414	415	416	1	110.000	502.080
415	416	417	1	180.000	167.360
416	417	418	1	109.500	355.640
416	417	419	1	109.500	355.640
416	417	420	1	110.000	502.080
407	405	414	1	110.000	502.080
418	417	419	1	109.500	292.880
418	417	419	1	109.500	292.880
406	405	414	1	109.500	355.640
420	417	419	1	109.500	355.640
412	410	413	1	109.500	355.640
411	410	413	1	109.500	355.640
421	424	425	1	180.000	167.360
424	425	426	1	110.000	502.080
424	425	427	1	110.000	502.080
424	425	428	1	110.000	502.080
425	428	429	1	180.000	167.360
428	429	430	1	109.500	355.640
428	429	431	1	109.500	355.640
428	429	432	1	110.000	502.080
429	432	433	1	180.000	167.360
432	433	434	1	110.000	502.080
432	433	435	1	110.000	502.080
433	435	436	1	180.000	167.360
435	436	437	1	110.000	502.080
436	437	438	1	180.000	167.360
437	438	439	1	109.500	355.640
437	438	440	1	109.500	355.640
439	438	440	1	109.500	292.880
434	433	435	1	110.000	502.080
430	429	431	1	109.500	292.880
426	425	428	1	110.000	502.080
422	421	423	1	110.000	502.080
423	421	424	1	109.500	355.640
422	421	424	1	110.000	502.080
431	429	432	1	109.500	355.640
426	425	427	1	110.000	502.080
427	425	428	1	110.000	502.080
430	429	432	1	109.500	355.640
437	438	441	1	110.000	502.080
432	433	442	1	110.000	502.080
433	442	443	1	180.000	167.360
442	443	444	1	110.000	502.080
443	444	445	1	180.000	167.360
444	445	446	1	109.500	355.640
444	445	447	1	109.500	355.640
444	445	448	1	110.000	502.080
435	433	442	1	110.000	502.080
446	445	447	1	109.500	292.880
446	445	447	1	109.500	292.880
434	433	442	1	109.500	355.640
448	445	447	1	109.500	355.640
440	438	441	1	109.500	355.640
439	438	441	1	109.500	355.640
449	452	453	1	180.000	167.360
452	453	454	1	110.000	502.080
452	453	455	1	110.000	502.080
452	453	456	1	110.000	502.080
453	456	457	1	180.000	167.360
456	457	458	1	109.500	355.640
456	457	459	1	109.500	355.640
456	457	460	1	110.000	502.080
457	460	461	1	180.000	167.360
460	461	462	1	110.000	502.080
460	461	463	1	110.000	502.080
461	463	464	1	180.000	167.360
463	464	465	1	110.000	502.080
464	465	466	1	180.000	167.360
465	466	467	1	109.500	355.640
465	466	468	1	109.500	355.640
467	466	468	1	109.500	292.880
462	461	463	1	110.000	502.080
458	457	459	1	109.500	292.880
454	453	456	1	110.000	502.080
450	449	451	1	110.000	502.080
451	449	452	1	109.500	355.640
450	449	452	1	110.000	502.080
459	457	460	1	109.500	355.640
454	453	455	1	110.000	502.080
455	453	456	1	110.000	502.080
458	457	460	1	109.500	355.640
465	466	469	1	110.000	502.080
460	461	470	1	110.000	502.080
461	470	471	1	180.000	167.360
470	471	472	1	110.000	502.080
471	472	473	1	180.000	167.360
472	473	474	1	109.500	355.640
472	473	475	1	109.500	355.640
472	473	476	1	110.000	502.080
463	461	470	1	110.000	502.080
474	473	475	1	109.500	292.880
474	473	475	1	109.500	292.880
462	461	470	1	109.500	355.640
476	473	475	1	109.500	355.640
468	466	469	1	109.500	355.640
467	466	469	1	109.500	355.640
477	480	481	1	180.000	167.360
480	481	482	1	110.000	502.080
480	481	483	1	110.000	502.080
480	481	484	1	110.000	502.080
481	484	485	1	180.000	167.360
484	485	486	1	109.500	355.640
484	485	487	1	109.500	355.640
484	485	488	1	110.000	502.080
485	488	489	1	180.000	167.360
488	489	490	1	110.000	502.080
488	489	491	1	110.000	502.080
489	491	492	1	180.000	167.360
491	492	493	1	110.000	502.080
492	493	494	1	180.000	167.360
493	494	495	1	109.500	355.640
493	494	496	1	109.500	355.640
495	494	496	1	109.500	292.880
490	489	491	1	110.000	502.080
486	485	487	1	109.500	292.880
482	481	484	1	110.000	502.080
478	477	479	1	110.000	502.080
479	477	480	1	109.500	355.640
478	477	480	1	110.000	502.080
487	485	488	1	109.500	355.640
482	481	483	1	110.000	502.080
483	481	484	1	110.000	502.080
486	485	488	1	109.500	355.640
493	494	497	1	110.000	502.080
488	489	498	1	110.000	502.080
489	498	499	1	180.000	167.360
498	499	500	1	110.000	502.080
499	500	501	1	180.000	167.360
500	501	502	1	109.500	355.640
500	501	503	1	109.500	355.640
500	501	504	1	110.000	502.080
491	489	498	1	110.000	502.080
502	501	503	1	109.500	292.880
502	501	503	1	109.500	292.880
490	489	498	1	109.500	355.640
504	501	503	1	109.500	355.640
496	494	497	1	109.500	355.640
495	494	497	1	109.500	355.640
505	508	509	1	180.000	167.360
508	509	510	1	110.000	502.080
508	509	511	1	110.000	502.080
508	509	512	1	110.000	502.080
509	512	513	1	180.000	167.360
512	513	514	1	109.500	355.640
512	513	515	1	109.500	355.640
512	513	516	1	110.000	502.080
513	516	517	1	180.000	167.360
516	517	518	1	110.000	502.080
516	517	519	1	110.000	502.080
517	519	520	1	180.000	167.360
519	520	521	1	110.000	502.080
520	521	522	1	180.000	167.360
521	522	523	1	109.500	355.640
521	522	524	1	109.500	355.640
523	522	524	1	109.500	292.880
518	517	519	1	110.000	502.080
514	513	515	1	109.500	292.880
510	509	512	1	110.000	502.080
506	505	507	1	110.000	502.080
507	505	508	1	109.500	355.640
506	505	508	1	110.000	502.080
515	513	516	1	109.500	355.640
510	509	511	1	110.000	502.080
511	509	512	1	110.000	502.080
514	513	516	1	109.500	355.640
521	522	525	1	110.000	502.080
516	517	526	1	110.000	502.080
517	526	527	1	180.000	167.360
526	527	528	1	110.000	502.080
527	528	529	1	180.000	167.360
528	529	530	1	109.500	355.640
528	529	531	1	109.500	355.640
528	529	532	1	110.000	502.080
519	517	526	1	110.000	502.080
530	529	531	1	109.500	292.880
530	529	531	1	109.500	292.880
518	517	526	1	109.500	355.640
532	529	531	1	109.500	355.640
524	522	525	1	109.500	355.640
523	522	525	1	109.500	355.640
533	536	537	1	180.000	167.360
536	537	538	1	110.000	502.080
536	537	539	1	110.000	502.080
536	537	540	1	110.000	502.080
537	540	541	1	180.000	167.360
540	541	542	1	109.500	355.640
540	541	543	1	109.500	355.640
540	541	544	1	110.000	502.080
541	544	545	1	180.000	167.360
544	545	546	1	110.000	502.080
544	545	547	1	110.000	502.080
545	547	548	1	180.000	167.360
547	548	549	1	110.000	502.080
548	549	550	1	180.000	167.360
549	550	551	1	109.500	355.640
549	550	552	1	109.500	355.640
551	550	552	1	109.500	292.880
546	545	547	1	110.000	502.080
542	541	543	1	109.500	292.880
538	537	540	1	110.000	502.080
534	533	535	1	110.000	502.080
535	533	536	1	109.500	355.640
534	533	536	1	110.000	502.080
543	541	544	1	109.500	355.640
538	537	539	1	110.000	502.080
539	537	540	1	110.000	502.080
542	541	544	1	109.500	355.640
549	550	553	1	110.000	502.080
544	545	554	1	110.000	502.080
545	554	555	1	180.000	167.360
554	555	556	1	110.000	502.080
555	556	557	1	180.000	167.360
556	557	558	1	109.500	355.640
556	557	559	1	109.500	355.640
556	557	560	1	110.000	502.080
547	545	554	1	110.000	502.080
558	557	559	1	109.500	292.880
558	557	559	1	109.500	292.880
546	545	554	1	109.500	355.640
560	557	559	1	109.500	355.640
552	550	553	1	109.500	355.640
551	550	553	1	109.500	355.640
561	564	565	1	180.000	167.360
564	565	566	1	110.000	502.080
564	565	567	1	110.000	502.080
564	565	568	1	110.000	502.080
565	568	569	1	180.000	167.360
568	569	570	1	109.500	355.640
568	569	571	1	109.500	355.640
568	569	572	1	110.000	502.080
569	572	573	1	180.000	167.360
572	573	574	1	110.000	502.080
572	573	575	1	110.000	502.080
573	575	576	1	180.000	167.360
575	576	577	1	110.000	502.080
576	577	578	1	180.000	167.360
577	578	579	1	109.500	355.640
577	578	580	1	109.500	355.640
579	578	580	1	109.500	292.880
574	573	575	1	110.000	502.080
570	569	571	1	109.500	292.880
566	565	568	1	110.000	502.080
562	561	563	1	110.000	502.080
563	561	564	1	109.500	355.640
562	561	564	1	110.000	502.080
571	569	572	1	109.500	355.640
566	565	567	1	110.000	502.080
567	565	568	1	110.000	502.080
570	569	572	1	109.500	355.640
577	578	581	1	110.000	502.080
572	573	582	1	110.000	502.080
573	582	583	1	180.000	167.360
582	583	584	1	110.000	502.080
583	584	585	1	180.000	167.360
584	585	586	1	109.500	355.640
584	585	587	1	109.500	355.640
584	585	588	1	110.000	502.080
575	573	582	1	110.000	502.080
586	585	587	1	109.500	292.880
586	585	587	1	109.500	292.880
574	573	582	1	109.500	355.640
588	585	587	1	109.500	355.640
580	578	581	1	109.500	355.640
579	578	581	1	109.500	355.640
589	592	593	1	180.000	167.360
592	593	594	1	110.000	502.080
592	593	595	1	110.000	502.080
592	593	596	1	110.000	502.080
593	596	597	1	180.000	167.360
596	597	598	1	109.500	355.640
596	597	599	1	109.500	355.640
596	597	600	1	110.000	502.080
597	600	601	1	180.000	167.360
600	601	602	1	110.000	502.080
600	601	603	1	110.000	502.080
601	603	604	1	180.000	167.360
603	604	605	1	110.000	502.080
604	605	606	1	180.000	167.360
605	606	607	1	109.500	355.640
605	606	608	1	109.500	355.640
607	606	608	1	109.500	292.880
602	601	603	1	110.000	502.080
598	597	599	1	109.500	292.880
594	593	596	1	110.000	502.080
590	589	591	1	110.000	502.080
591	589	592	1	109.500	355.640
590	589	592	1	110.000	502.080
599	597	600	1	109.500	355.640
594	593	595	1	110.000	502.080
595	593	596	1	110.000	502.080
598	597	600	1	109.500	355.640
605	606	609	1	110.000	502.080
600	601	610	1	110.000	502.080
601	610	611	1	180.000	167.360
610	611	612	1	110.000	502.080
611	612	613	1	180.000	167.360
612	613	614	1	109.500	355.640
612	613	615	1	109.500	355.640
612	613	616	1	110.000	502.080
603	601	610	1	110.000	502.080
614	613	615	1	109.500	292.880
614	613	615	1	109.500	292.880
602	601	610	1	109.500	355.640
616	613	615	1	109.500	355.640
608	606	609	1	109.500	355.640
607	606	609	1	109.500	355.640
617	620	621	1	180.000	167.360
620	621	622	1	110.000	502.080
620	621	623	1	110.000	502.080
620	621	624	1	110.000	502.080
621	624	625	1	180.000	167.360
624	625	626	1	109.500	355.640
624	625	627	1	109.500	355.640
624	625	628	1	110.000	502.080
625	628	629	1	180.000	167.360
628	629	630	1	110.000	502.080
628	629	631	1	110.000	502.080
629	631	632	1	180.000	167.360
631	632	633	1	110.000	502.080
632	633	634	1	180.000	167.360
633	634	635	1	109.500	355.640
633	634	636	1	109.500	355.640
635	634	636	1	109.500	292.880
630	629	631	1	110.000	502.080
626	625	627	1	109.500	292.880
622	621	624	1	110.000	502.080
618	617	619	1	110.000	502.080
619	617	620	1	109.500	355.640
618	617	620	1	110.000	502.080
627	625	628	1	109.500	355.640
622	621	623	1	110.000	502.080
623	621	624	1	110.000	502.080
626	625	628	1	109.500	355.640
633	634	637	1	110.000	502.080
628	629	638	1	110.000	502.080
629	638	639	1	180.000	167.360
638	639	640	1	110.000	502.080
639	640	641	1	180.000	167.360
640	641	642	1	109.500	355.640
640	641	643	1	109.500	355.640
640	641	644	1	110.000	502.080
631	629	638	1	110.000	502.080
642	641	643	1	109.500	292.880
642	641	643	1	109.500	292.880
630	629	638	1	109.500	355.640
644	641	643	1	109.500	355.640
636	634	637	1	109.500	355.640
635	634	637	1	109.500	355.640
645	648	649	1	180.000	167.360
648	649	650	1	110.000	502.080
648	649	651	1	110.000	502.080
648	649	652	1	110.000	502.080
649	652	653	1	180.000	167.360
652	653	654	1	109.500	355.640
652	653	655	1	109.500	355.640
652	653	656	1	110.000	502.080
653	656	657	1	180.000	167.360
656	657	658	1	110.000	502.080
656	657	659	1	110.000	502.080
657	659	660	1	180.000	167.360
659	660	661	1	110.000	502.080
660	661	662	1	180.000	167.360
661	662	663	1	109.500	355.640
661	662	664	1	109.500	355.640
663	662	664	1	109.500	292.880
658	657	659	1	110.000	502.080
654	653	655	1	109.500	292.880
650	649	652	1	110.000	502.080
646	645	647	1	110.000	502.080
647	645	648	1	109.500	355.640
646	645	648	1	110.000	502.080
655	653	656	1	109.500	355.640
650	649	651	1	110.000	502.080
651	649	652	1	110.000	502.080
654	653	656	1	109.500	355.640
661	662	665	1	110.000	502.080
656	657	666	1	110.000	502.080
657	666	667	1	180.000	167.360
666	667	668	1	110.000	502.080
667	668	669	1	180.000	167.360
668	669	670	1	109.500	355.640
668	669	671	1	109.500	355.640
668	669	672	1	110.000	502.080
659	657	666	1	110.000	502.080
670	669	671	1	109.500	292.880
670	669	671	1	109.500	292.880
658	657	666	1	109.500	355.640
672	669	671	1	109.500	355.640
664	662	665	1	109.500	355.640
663	662	665	1	109.500	355.640
673	676	677	1	180.000	167.360
676	677	678	1	110.000	502.080
676	677	679	1	110.000	502.080
676	677	680	1	110.000	502.080
677	680	681	1	180.000	167.360
680	681	682	1	109.500	355.640
680	681	683	1	109.500	355.640
680	681	684	1	110.000	502.080
681	684	685	1	180.000	167.360
684	685	686	1	110.000	502.080
684	685	687	1	110.000	502.080
685	687	688	1	180.000	167.360
687	688	689	1	110.000	502.080
688	689	690	1	180.000	167.360
689	690	691	1	109.500	355.640
689	690	692	1	109.500	355.640
691	690	692	1	109.500	292.880
686	685	687	1	110.000	502.080
682	681	683	1	109.500	292.880
678	677	680	1	110.000	502.080
674	673	675	1	110.000	502.080
675	673	676	1	109.500	355.640
674	673	676	1	110.000	502.080
683	681	684	1	109.500	355.640
678	677	679	1	110.000	502.080
679	677	680	1	110.000	502.080
682	681	684	1	109.500	355.640
689	690	693	1	110.000	502.080
684	685	694	1	110.000	502.080
685	694	695	1	180.000	167.360
694	695	696	1	110.000	502.080
695	696	697	1	180.000	167.360
696	697	698	1	109.500	355.640
696	697	699	1	109.500	355.640
696	697	700	1	110.000	502.080
687	685	694	1	110.000	502.080
698	697	699	1	109.500	292.880
698	697	699	1	109.500	292.880
686	685	694	1	109.500	355.640
700	697	699	1	109.500	355.640
692	690	693	1	109.500	355.640
691	690	693	1	109.500	355.640
701	704	705	1	180.000	167.360
704	705	706	1	110.000	502.080
704	705	707	1	110.000	502.080
704	705	708	1	110.000	502.080
705	708	709	1	180.000	167.360
708	709	710	1	109.500	355.640
708	709	711	1	109.500	355.640
708	709	712	1	110.000	502.080
709	712	713	1	180.000	167.360
712	713	714	1	110.000	502.080
712	713	715	1	110.000	502.080
713	715	716	1	180.000	167.360
715	716	717	1	110.000	502.080
716	717	718	1	180.000	167.360
717	718	719	1	109.500	355.640
717	718	720	1	109.500	355.640
719	718	720	1	109.500	292.880
714	713	715	1	110.000	502.080
710	709	711	1	109.500	292.880
706	705	708	1	110.000	502.080
702	701	703	1	110.000	502.080
703	701	704	1	109.500	355.640
702	701	704	1	110.000	502.080
711	709	712	1	109.500	355.640
706	705	707	1	110.000	502.080
707	705	708	1	110.000	502.080
710	709	712	1	109.500	355.640
717	718	721	1	110.000	502.080
712	713	722	1	110.000	502.080
713	722	723	1	180.000	167.360
722	723	724	1	110.000	502.080
723	724	725	1	180.000	167.360
724	725	726	1	109.500	355.640
724	725	727	1	109.500	355.640
724	725	728	1	110.000	502.080
715	713	722	1	110.000	502.080
726	725	727	1	109.500	292.880
726	725	727	1	109.500	292.880
714	713	722	1	109.500	355.640
728	725	727	1	109.500	355.640
720	718	721	1	109.500	355.640
719	718	721	1	109.500	355.640
729	732	733	1	180.000	167.360
732	733	734	1	110.000	502.080
732	733	735	1	110.000	502.080
732	733	736	1	110.000	502.080
733	736	737	1	180.000	167.360
736	737	738	1	109.500	355.640
736	737	739	1	109.500	355.640
736	737	740	1	110.000	502.080
737	740	741	1	180.000	167.360
740	741	742	1	110.000	502.080
740	741	743	1	110.000	502.080
741	743	744	1	180.000	167.360
743	744	745	1	110.000	502.080
744	745	746	1	180.000	167.360
745	746	747	1	109.500	355.640
745	746	748	1	109.500	355.640
747	746	748	1	109.500	292.880
742	741	743	1	110.000	502.080
738	737	739	1	109.500	292.880
734	733	736	1	110.000	502.080
730	729	731	1	110.000	502.080
731	729	732	1	109.500	355.640
730	729	732	1	110.000	502.080
739	737	740	1	109.500	355.640
734	733	735	1	110.000	502.080
735	733	736	1	110.000	502.080
738	737	740	1	109.500	355.640
745	746	749	1	110.000	502.080
740	741	750	1	110.000	502.080
741	750	751	1	180.000	167.360
750	751	752	1	110.000	502.080
751	752	753	1	180.000	167.360
752	753	754	1	109.500	355.640
752	753	755	1	109.500	355.640
752	753	756	1	110.000	502.080
743	741	750	1	110.000	502.080
754	753	755	1	109.500	292.880
754	753	755	1	109.500	292.880
742	741	750	1	109.500	355.640
756	753	755	1	109.500	355.640
748	746	749	1	109.500	355.640
747	746	749	1	109.500	355.640
757	760	761	1	180.000	167.360
760	761	762	1	110.000	502.080
760	761	763	1	110.000	502.080
760	761	764	1	110.000	502.080
761	764	765	1	180.000	167.360
764	765	766	1	109.500	355.640
764	765	767	1	109.500	355.640
764	765	768	1	110.000	502.080
765	768	769	1	180.000	167.360
768	769	770	1	110.000	502.080
768	769	771	1	110.000	502.080
769	771	772	1	180.000	167.360
771	772	773	1	110.000	502.080
772	773	774	1	180.000	167.360
773	774	775	1	109.500	355.640
773	774	776	1	109.500	355.640
775	774	776	1	109.500	292.880
770	769	771	1	110.000	502.080
766	765	767	1	109.500	292.880
762	761	764	1	110.000	502.080
758	757	759	1	110.000	502.080
759	757	760	1	109.500	355.640
758	757	760	1	110.000	502.080
767	765	768	1	109.500	355.640
762	761	763	1	110.000	502.080
763	761	764	1	110.000	502.080
766	765	768	1	109.500	355.640
773	774	777	1	110.000	502.080
768	769	778	1	110.000	502.080
769	778	779	1	180.000	167.360
778	779	780	1	110.000	502.080
779	780	781	1	180.000	167.360
780	781	782	1	109.500	355.640
780	781	783	1	109.500	355.640
780	781	784	1	110.000	502.080
771	769	778	1	110.000	502.080
782	781	783	1	109.500	292.880
782	781	783	1	109.500	292.880
770	769	778	1	109.500	355.640
784	781	783	1	109.500	355.640
776	774	777	1	109.500	355.640
775	774	777	1	109.500	355.640
785	788	789	1	180.000	167.360
788	789	790	1	110.000	502.080
788	789	791	1	110.000	502.080
788	789	792	1	110.000	502.080
789	792	793	1	180.000	167.360
792	793	794	1	109.500	355.640
792	793	795	1	109.500	355.640
792	793	796	1	110.000	502.080
793	796	797	1	180.000	167.360
796	797	798	1	110.000	502.080
796	797	799	1	110.000	502.080
797	799	800	1	180.000	167.360
799	800	801	1	110.000	502.080
800	801	802	1	180.000	167.360
801	802	803	1	109.500	355.640
801	802	804	1	109.500	355.640
803	802	804	1	109.500	292.880
798	797	799	1	110.000	502.080
794	793	795	1	109.500	292.880
790	789	792	1	110.000	502.080
786	785	787	1	110.000	502.080
787	785	788	1	109.500	355.640
786	785	788	1	110.000	502.080
795	793	796	1	109.500	355.640
790	789	791	1	110.000	502.080
791	789	792	1	110.000	502.080
794	793	796	1	109.500	355.640
801	802	805	1	110.000	502.080
796	797	806	1	110.000	502.080
797	806	807	1	180.000	167.360
806	807	808	1	110.000	502.080
807	808	809	1	180.000	167.360
808	809	810	1	109.500	355.640
808	809	811	1	109.500	355.640
808	809	812	1	110.000	502.080
799	797	806	1	110.000	502.080
810	809	811	1	109.500	292.880
810	809	811	1	109.500	292.880
798	797	806	1	109.500	355.640
812	809	811	1	109.500	355.640
804	802	805	1	109.500	355.640
803	802	805	1	109.500	355.640
813	816	817	1	180.000	167.360
816	817	818	1	110.000	502.080
816	817	819	1	110.000	502.080
816	817	820	1	110.000	502.080
817	820	821	1	180.000	167.360
820	821	822	1	109.500	355.640
820	821	823	1	109.500	355.640
820	821	824	1	110.000	502.080
821	824	825	1	180.000	167.360
824	825	826	1	110.000	502.080
824	825	827	1	110.000	502.080
825	827	828	1	180.000	167.360
827	828	829	1	110.000	502.080
828	829	830	1	180.000	167.360
829	830	831	1	109.500	355.640
829	830	832	1	109.500	355.640
831	830	832	1	109.500	292.880
826	825	827	1	110.000	502.080
822	821	823	1	109.500	292.880
818	817	820	1	110.000	502.080
814	813	815	1	110.000	502.080
815	813	816	1	109.500	355.640
814	813	816	1	110.000	502.080
823	821	824	1	109.500	355.640
818	817	819	1	110.000	502.080
819	817	820	1	110.000	502.080
822	821	824	1	109.500	355.640
829	830	833	1	110.000	502.080
824	825	834	1	110.000	502.080
825	834	835	1	180.000	167.360
834	835	836	1	110.000	502.080
835	836	837	1	180.000	167.360
836	837	838	1	109.500	355.640
836	837	839	1	109.500	355.640
836	837	840	1	110.000	502.080
827	825	834	1	110.000	502.080
838	837	839	1	109.500	292.880
838	837	839	1	109.500	292.880
826	825	834	1	109.500	355.640
840	837	839	1	109.500	355.640
832	830	833	1	109.500	355.640
831	830	833	1	109.500	355.640
841	844	845	1	180.000	167.360
844	845	846	1	110.000	502.080
844	845	847	1	110.000	502.080
844	845	848	1	110.000	502.080
845	848	849	1	180.000	167.360
848	849	850	1	109.500	355.640
848	849	851	1	109.500	355.640
848	849	852	1	110.000	502.080
849	852	853	1	180.000	167.360
852	853	854	1	110.000	502.080
852	853	855	1	110.000	502.080
853	855	856	1	180.000	167.360
855	856	857	1	110.000	502.080
856	857	858	1	180.000	167.360
857	858	859	1	109.500	355.640
857	858	860	1	109.500	355.640
859	858	860	1	109.500	292.880
854	853	855	1	110.000	502.080
850	849	851	1	109.500	292.880
846	845	848	1	110.000	502.080
842	841	843	1	110.000	502.080
843	841	844	1	109.500	355.640
842	841	844	1	110.000	502.080
851	849	852	1	109.500	355.640
846	845	847	1	110.000	502.080
847	845	848	1	110.000	502.080
850	849	852	1	109.500	355.640
857	858	861	1	110.000	502.080
852	853	862	1	110.000	502.080
853	862	863	1	180.000	167.360
862	863	864	1	110.000	502.080
863	864	865	1	180.000	167.360
864	865	866	1	109.500	355.640
864	865	867	1	109.500	355.640
864	865	868	1	110.000	502.080
855	853	862	1	110.000	502.080
866	865	867	1	109.500	292.880
866	865	867	1	109.500	292.880
854	853	862	1	109.500	355.640
868	865	867	1	109.500	355.640
860	858	861	1	109.500	355.640
859	858	861	1	109.500	355.640
869	872	873	1	180.000	167.360
872	873	874	1	110.000	502.080
872	873	875	1	110.000	502.080
872	873	876	1	110.000	502.080
873	876	877	1	180.000	167.360
876	877	878	1	109.500	355.640
876	877	879	1	109.500	355.640
876	877	880	1	110.000	502.080
877	880	881	1	180.000	167.360
880	881	882	1	110.000	502.080
880	881	883	1	110.000	502.080
881	883	884	1	180.000	167.360
883	884	885	1	110.000	502.080
884	885	886	1	180.000	167.360
885	886	887	1	109.500	355.640
885	886	888	1	109.500	355.640
887	886	888	1	109.500	292.880
882	881	883	1	110.000	502.080
878	877	879	1	109.500	292.880
874	873	876	1	110.000	502.080
870	869	871	1	110.000	502.080
871	869	872	1	109.500	355.640
870	869	872	1	110.000	502.080
879	877	880	1	109.500	355.640
874	873	875	1	110.000	502.080
875	873	876	1	110.000	502.080
878	877	880	1	109.500	355.640
885	886	889	1	110.000	502.080
880	881	890	1	110.000	502.080
881	890	891	1	180.000	167.360
890	891	892	1	110.000	502.080
891	892	893	1	180.000	167.360
892	893	894	1	109.500	355.640
892	893	895	1	109.500	355.640
892	893	896	1	110.000	502.080
883	881	890	1	110.000	502.080
894	893	895	1	109.500	292.880
894	893	895	1	109.500	292.880
882	881	890	1	109.500	355.640
896	893	895	1	109.500	355.640
888	886	889	1	109.500	355.640
887	886	889	1	109.500	355.640
897	900	901	1	180.000	167.360
900	901	902	1	110.000	502.080
900	901	903	1	110.000	502.080
900	901	904	1	110.000	502.080
901	904	905	1	180.000	167.360
904	905	906	1	109.500	355.640
904	905	907	1	109.500	355.640
904	905	908	1	110.000	502.080
905	908	909	1	180.000	167.360
908	909	910	1	110.000	502.080
908	909	911	1	110.000	502.080
909	911	912	1	180.000	167.360
911	912	913	1	110.000	502.080
912	913	914	1	180.000	167.360
913	914	915	1	109.500	355.640
913	914	916	1	109.500	355.640
915	914	916	1	109.500	292.880
910	909	911	1	110.000	502.080
906	905	907	1	109.500	292.880
902	901	904	1	110.000	502.080
898	897	899	1	110.000	502.080
899	897	900	1	109.500	355.640
898	897	900	1	110.000	502.080
907	905	908	1	109.500	355.640
902	901	903	1	110.000	502.080
903	901	904	1	110.000	502.080
906	905	908	1	109.500	355.640
913	914	917	1	110.000	502.080
908	909	918	1	110.000	502.080
909	918	919	1	180.000	167.360
918	919	920	1	110.000	502.080
919	920	921	1	180.000	167.360
920	921	922	1	109.500	355.640
920	921	923	1	109.500	355.640
920	921	924	1	110.000	502.080
911	909	918	1	110.000	502.080
922	921	923	1	109.500	292.880
922	921	923	1	109.500	292.880
910	909	918	1	109.500	355.640
924	921	923	1	109.500	355.640
916	914	917	1	109.500	355.640
915	914	917	1	109.500	355.640
925	928	929	1	180.000	167.360
928	929	930	1	110.000	502.080
928	929	931	1	110.000	502.080
928	929	932	1	110.000	502.080
929	932	933	1	180.000	167.360
932	933	934	1	109.500	355.640
932	933	935	1	109.500	355.640
932	933	936	1	110.000	502.080
933	936	937	1	180.000	167.360
936	937	938	1	110.000	502.080
936	937	939	1	110.000	502.080
937	939	940	1	180.000	167.360
939	940	941	1	110.000	502.080
940	941	942	1	180.000	167.360
941	942	943	1	109.500	355.640
941	942	944	1	109.500	355.640
943	942	944	1	109.500	292.880
938	937	939	1	110.000	502.080
934	933	935	1	109.500	292.880
930	929	932	1	110.000	502.080
926	925	927	1	110.000	502.080
927	925	928	1	109.500	355.640
926	925	928	1	110.000	502.080
935	933	936	1	109.500	355.640
930	929	931	1	110.000	502.080
931	929	932	1	110.000	502.080
934	933	936	1	109.500	355.640
941	942	945	1	110.000	502.080
936	937	946	1	110.000	502.080
937	946	947	1	180.000	167.360
946	947	948	1	110.000	502.080
947	948	949	1	180.000	167.360
948	949	950	1	109.500	355.640
948	949	951	1	109.500	355.640
948	949	952	1	110.000	502.080
939	937	946	1	110.000	502.080
950	949	951	1	109.500	292.880
950	949	951	1	109.500	292.880
938	937	946	1	109.500	355.640
952	949	951	1	109.500	355.640
944	942	945	1	109.500	355.640
943	942	945	1	109.500	355.640
953	956	957	1	180.000	167.360
956	957	958	1	110.000	502.080
956	957	959	1	110.000	502.080
956	957	960	1	110.000	502.080
957	960	961	1	180.000	167.360
960	961	962	1	109.500	355.640
960	961	963	1	109.500	355.640
960	961	964	1	110.000	502.080
961	964	965	1	180.000	167.360
964	965	966	1	110.000	502.080
964	965	967	1	110.000	502.080
965	967	968	1	180.000	167.360
967	968	969	1	110.000	502.080
968	969	970	1	180.000	167.360
969	970	971	1	109.500	355.640
969	970	972	1	109.500	355.640
971	970	972	1	109.500	292.880
966	965	967	1	110.000	502.080
962	961	963	1	109.500	292.880
958	957	960	1	110.000	502.080
954	953	955	1	110.000	502.080
955	953	956	1	109.500	355.640
954	953	956	1	110.000	502.080
963	961	964	1	109.500	355.640
958	957	959	1	110.000	502.080
959	957	960	1	110.000	502.080
962	961	964	1	109.500	355.640
969	970	973	1	110.000	502.080
964	965	974	1	110.000	502.080
965	974	975	1	180.000	167.360
974	975	976	1	110.000	502.080
975	976	977	1	180.000	167.360
976	977	978	1	109.500	355.640
976	977	979	1	109.500	355.640
976	977	980	1	110.000	502.080
967	965	974	1	110.000	502.080
978	977	979	1	109.500	292.880
978	977	979	1	109.500	292.880
966	965	974	1	109.500	355.640
980	977	979	1	109.500	355.640
972	970	973	1	109.500	355.640
971	970	973	1	109.500	355.640
981	984	985	1	180.000	167.360
984	985	986	1	110.000	502.080
984	985	987	1	110.000	502.080
984	985	988	1	110.000	502.080
985	988	989	1	180.000	167.360
988	989	990	1	109.500	355.640
988	989	991	1	109.500	355.640
988	989	992	1	110.000	502.080
989	992	993	1	180.000	167.360
992	993	994	1	110.000	502.080
992	993	995	1	110.000	502.080
993	995	996	1	180.000	167.360
995	996	997	1	110.000	502.080
996	997	998	1	180.000	167.360
997	998	999	1	109.500	355.640
997	998	1000	1	109.500	355.640
999	998	1000	1	109.500	292.880
994	993	995	1	110.000	502.080
990	989	991	1	109.500	292.880
986	985	988	1	110.000	502.080
982	981	983	1	110.000	502.080
983	981	984	1	109.500	355.640
982	981	984	1	110.000	502.080
991	989	992	1	109.500	355.640
986	985	987	1	110.000	502.080
987	985	988	1	110.000	502.080
990	989	992	1	109.500	355.640
997	998	1001	1	110.000	502.080
992	993	1002	1	110.000	502.080
993	1002	1003	1	180.000	167.360
1002	1003	1004	1	110.000	502.080
1003	1004	1005	1	180.000	167.360
1004	1005	1006	1	109.500	355.640
1004	1005	1007	1	109.500	355.640
1004	1005	1008	1	110.000	502.080
995	993	1002	1	110.000	502.080
1006	1005	1007	1	109.500	292.880
1006	1005	1007	1	109.500	292.880
994	993	1002	1	109.500	355.640
1008	1005	1007	1	109.500	355.640
1000	998	1001	1	109.500	355.640
999	998	1001	1	109.500	355.640
1009	1012	1013	1	180.000	167.360
1012	1013	1014	1	110.000	502.080
1012	1013	1015	1	110.000	502.080
1012	1013	1016	1	110.000	502.080
1013	1016	1017	1	180.000	167.360
1016	1017	1018	1	109.500	355.640
1016	1017	1019	1	109.500	355.640
1016	1017	1020	1	110.000	502.080
1017	1020	1021	1	180.000	167.360
1020	1021	1022	1	110.000	502.080
1020	1021	1023	1	110.000	502.080
1021	1023	1024	1	180.000	167.360
1023	1024	1025	1	110.000	502.080
1024	1025	1026	1	180.000	167.360
1025	1026	1027	1	109.500	355.640
1025	1026	1028	1	109.500	355.640
1027	1026	1028	1	109.500	292.880
1022	1021	1023	1	110.000	502.080
1018	1017	1019	1	109.500	292.880
1014	1013	1016	1	110.000	502.080
1010	1009	1011	1	110.000	502.080
1011	1009	1012	1	109.500	355.640
1010	1009	1012	1	110.000	502.080
1019	1017	1020	1	109.500	355.640
1014	1013	1015	1	110.000	502.080
1015	1013	1016	1	110.000	502.080
1018	1017	1020	1	109.500	355.640
1025	1026	1029	1	110.000	502.080
1020	1021	1030	1	110.000	502.080
1021	1030	1031	1	180.000	167.360
1030	1031	1032	1	110.000	502.080
1031	1032	1033	1	180.000	167.360
1032	1033	1034	1	109.500	355.640
1032	1033	1035	1	109.500	355.640
1032	1033	1036	1	110.000	502.080
1023	1021	1030	1	110.000	502.080
1034	1033	1035	1	109.500	292.880
1034	1033	1035	1	109.500	292.880
1022	1021	1030	1	109.500	355.640
1036	1033	1035	1	109.500	355.640
1028	1026	1029	1	109.500	355.640
1027	1026	1029	1	109.500	355.640
1037	1040	1041	1	180.000	167.360
1040	1041	1042	1	110.000	502.080
1040	1041	1043	1	110.000	502.080
1040	1041	1044	1	110.000	502.080
1041	1044	1045	1	180.000	167.360
1044	1045	1046	1	109.500	355.640
1044	1045	1047	1	109.500	355.640
1044	1045	1048	1	110.000	502.080
1045	1048	1049	1	180.000	167.360
1048	1049	1050	1	110.000	502.080
1048	1049	1051	1	110.000	502.080
1049	1051	1052	1	180.000	167.360
1051	1052	1053	1	110.000	502.080
1052	1053	1054	1	180.000	167.360
1053	1054	1055	1	109.500	355.640
1053	1054	1056	1	109.500	355.640
1055	1054	1056	1	109.500	292.880
1050	1049	1051	1	110.000	502.080
1046	1045	1047	1	109.500	292.880
1042	1041	1044	1	110.000	502.080
1038	1037	1039	1	110.000	502.080
1039	1037	1040	1	109.500	355.640
1038	1037	1040	1	110.000	502.080
1047	1045	1048	1	109.500	355.640
1042	1041	1043	1	110.000	502.080
1043	1041	1044	1	110.000	502.080
1046	1045	1048	1	109.500	355.640
1053	1054	1057	1	110.000	502.080
1048	1049	1058	1	110.000	502.080
1049	1058	1059	1	180.000	167.360
1058	1059	1060	1	110.000	502.080
1059	1060	1061	1	180.000	167.360
1060	1061	1062	1	109.500	355.640
1060	1061	1063	1	109.500	355.640
1060	1061	1064	1	110.000	502.080
1051	1049	1058	1	110.000	502.080
1062	1061	1063	1	109.500	292.880
1062	1061	1063	1	109.500	292.880
1050	1049	1058	1	109.500	355.640
1064	1061	1063	1	109.500	355.640
1056	1054	1057	1	109.500	355.640
1055	1054	1057	1	109.500	355.640
1065	1068	1069	1	180.000	167.360
1068	1069	1070	1	110.000	502.080
1068	1069	1071	1	110.000	502.080
1068	1069	1072	1	110.000	502.080
1069	1072	1073	1	180.000	167.360
1072	1073	1074	1	109.500	355.640
1072	1073	1075	1	109.500	355.640
1072	1073	1076	1	110.000	502.080
1073	1076	1077	1	180.000	167.360
1076	1077	1078	1	110.000	502.080
1076	1077	1079	1	110.000	502.080
1077	1079	1080	1	180.000	167.360
1079	1080	1081	1	110.000	502.080
1080	1081	1082	1	180.000	167.360
1081	1082	1083	1	109.500	355.640
1081	1082	1084	1	109.500	355.640
1083	1082	1084	1	109.500	292.880
1078	1077	1079	1	110.000	502.080
1074	1073	1075	1	109.500	292.880
1070	1069	1072	1	110.000	502.080
1066	1065	1067	1	110.000	502.080
1067	1065	1068	1	109.500	355.640
1066	1065	1068	1	110.000	502.080
1075	1073	1076	1	109.500	355.640
1070	1069	1071	1	110.000	502.080
1071	1069	1072	1	110.000	502.080
1074	1073	1076	1	109.500	355.640
1081	1082	1085	1	110.000	502.080
1076	1077	1086	1	110.000	502.080
1077	1086	1087	1	180.000	167.360
1086	1087	1088	1	110.000	502.080
1087	1088	1089	1	180.000	167.360
1088	1089	1090	1	109.500	355.640
1088	1089	1091	1	109.500	355.640
1088	1089	1092	1	110.000	502.080
1079	1077	1086	1	110.000	502.080
1090	1089	1091	1	109.500	292.880
1090	1089	1091	1	109.500	292.880
1078	1077	1086	1	109.500	355.640
1092	1089	1091	1	109.500	355.640
1084	1082	1085	1	109.500	355.640
1083	1082	1085	1	109.500	355.640
1093	1096	1097	1	180.000	167.360
1096	1097	1098	1	110.000	502.080
1096	1097	1099	1	110.000	502.080
1096	1097	1100	1	110.000	502.080
1097	1100	1101	1	180.000	167.360
1100	1101	1102	1	109.500	355.640
1100	1101	1103	1	109.500	355.640
1100	1101	1104	1	110.000	502.080
1101	1104	1105	1	180.000	167.360
1104	1105	1106	1	110.000	502.080
1104	1105	1107	1	110.000	502.080
1105	1107	1108	1	180.000	167.360
1107	1108	1109	1	110.000	502.080
1108	1109	1110	1	180.000	167.360
1109	1110	1111	1	109.500	355.640
1109	1110	1112	1	109.500	355.640
1111	1110	1112	1	109.500	292.880
1106	1105	1107	1	110.000	502.080
1102	1101	1103	1	109.500	292.880
1098	1097	1100	1	110.000	502.080
1094	1093	1095	1	110.000	502.080
1095	1093	1096	1	109.500	355.640
1094	1093	1096	1	110.000	502.080
1103	1101	1104	1	109.500	355.640
1098	1097	1099	1	110.000	502.080
1099	1097	1100	1	110.000	502.080
1102	1101	1104	1	109.500	355.640
1109	1110	1113	1	110.000	502.080
1104	1105	1114	1	110.000	502.080
1105	1114	1115	1	180.000	167.360
1114	1115	1116	1	110.000	502.080
1115	1116	1117	1	180.000	167.360
1116	1117	1118	1	109.500	355.640
1116	1117	1119	1	109.500	355.640
1116	1117	1120	1	110.000	502.080
1107	1105	1114	1	110.000	502.080
1118	1117	1119	1	109.500	292.880
1118	1117	1119	1	109.500	292.880
1106	1105	1114	1	109.500	355.640
1120	1117	1119	1	109.500	355.640
1112	1110	1113	1	109.500	355.640
1111	1110	1113	1	109.500	355.640
1121	1124	1125	1	180.000	167.360
1124	1125	1126	1	110.000	502.080
1124	1125	1127	1	110.000	502.080
1124	1125	1128	1	110.000	502.080
1125	1128	1129	1	180.000	167.360
1128	1129	1130	1	109.500	355.640
1128	1129	1131	1	109.500	355.640
1128	1129	1132	1	110.000	502.080
1129	1132	1133	1	180.000	167.360
1132	1133	1134	1	110.000	502.080
1132	1133	1135	1	110.000	502.080
1133	1135	1136	1	180.000	167.360
1135	1136	1137	1	110.000	502.080
1136	1137	1138	1	180.000	167.360
1137	1138	1139	1	109.500	355.640
1137	1138	1140	1	109.500	355.640
1139	1138	1140	1	109.500	292.880
1134	1133	1135	1	110.000	502.080
1130	1129	1131	1	109.500	292.880
1126	1125	1128	1	110.000	502.080
1122	1121	1123	1	110.000	502.080
1123	1121	1124	1	109.500	355.640
1122	1121	1124	1	110.000	502.080
1131	1129	1132	1	109.500	355.640
1126	1125	1127	1	110.000	502.080
1127	1125	1128	1	110.000	502.080
1130	1129	1132	1	109.500	355.640
1137	1138	1141	1	110.000	502.080
1132	1133	1142	1	110.000	502.080
1133	1142	1143	1	180.000	167.360
1142	1143	1144	1	110.000	502.080
1143	1144	1145	1	180.000	167.360
1144	1145	1146	1	109.500	355.640
1144	1145	1147	1	109.500	355.640
1144	1145	1148	1	110.000	502.080
1135	1133	1142	1	110.000	502.080
1146	1145	1147	1	109.500	292.880
1146	1145	1147	1	109.500	292.880
1134	1133	1142	1	109.500	355.640
1148	1145	1147	1	109.500	355.640
1140	1138	1141	1	109.500	355.640
1139	1138	1141	1	109.500	355.640
1149	1152	1153	1	180.000	167.360
1152	1153	1154	1	110.000	502.080
1152	1153	1155	1	110.000	502.080
1152	1153	1156	1	110.000	502.080
1153	1156	1157	1	180.000	167.360
1156	1157	1158	1	109.500	355.640
1156	1157	1159	1	109.500	355.640
1156	1157	1160	1	110.000	502.080
1157	1160	1161	1	180.000	167.360
1160	1161	1162	1	110.000	502.080
1160	1161	1163	1	110.000	502.080
1161	1163	1164	1	180.000	167.360
1163	1164	1165	1	110.000	502.080
1164	1165	1166	1	180.000	167.360
1165	1166	1167	1	109.500	355.640
1165	1166	1168	1	109.500	355.640
1167	1166	1168	1	109.500	292.880
1162	1161	1163	1	110.000	502.080
1158	1157	1159	1	109.500	292.880
1154	1153	1156	1	110.000	502.080
1150	1149	1151	1	110.000	502.080
1151	1149	1152	1	109.500	355.640
1150	1149	1152	1	110.000	502.080
1159	1157	1160	1	109.500	355.640
1154	1153	1155	1	110.000	502.080
1155	1153	1156	1	110.000	502.080
1158	1157	1160	1	109.500	355.640
1165	1166	1169	1	110.000	502.080
1160	1161	1170	1	110.000	502.080
1161	1170	1171	1	180.000	167.360
1170	1171	1172	1	110.000	502.080
1171	1172	1173	1	180.000	167.360
1172	1173	1174	1	109.500	355.640
1172	1173	1175	1	109.500	355.640
1172	1173	1176	1	110.000	502.080
1163	1161	1170	1	110.000	502.080
1174	1173	1175	1	109.500	292.880
1174	1173	1175	1	109.500	292.880
1162	1161	1170	1	109.500	355.640
1176	1173	1175	1	109.500	355.640
1168	1166	1169	1	109.500	355.640
1167	1166	1169	1	109.500	355.640
1177	1180	1181	1	180.000	167.360
1180	1181	1182	1	110.000	502.080
1180	1181	1183	1	110.000	502.080
1180	1181	1184	1	110.000	502.080
1181	1184	1185	1	180.000	167.360
1184	1185	1186	1	109.500	355.640
1184	1185	1187	1	109.500	355.640
1184	1185	1188	1	110.000	502.080
1185	1188	1189	1	180.000	167.360
1188	1189	1190	1	110.000	502.080
1188	1189	1191	1	110.000	502.080
1189	1191	1192	1	180.000	167.360
1191	1192	1193	1	110.000	502.080
1192	1193	1194	1	180.000	167.360
1193	1194	1195	1	109.500	355.640
1193	1194	1196	1	109.500	355.640
1195	1194	1196	1	109.500	292.880
1190	1189	1191	1	110.000	502.080
1186	1185	1187	1	109.500	292.880
1182	1181	1184	1	110.000	502.080
1178	1177	1179	1	110.000	502.080
1179	1177	1180	1	109.500	355.640
1178	1177	1180	1	110.000	502.080
1187	1185	1188	1	109.500	355.640
1182	1181	1183	1	110.000	502.080
1183	1181	1184	1	110.000	502.080
1186	1185	1188	1	109.500	355.640
1193	1194	1197	1	110.000	502.080
1188	1189	1198	1	110.000	502.080
1189	1198	1199	1	180.000	167.360
1198	1199	1200	1	110.000	502.080
1199	1200	1201	1	180.000	167.360
1200	1201	1202	1	109.500	355.640
1200	1201	1203	1	109.500	355.640
1200	1201	1204	1	110.000	502.080
1191	1189	1198	1	110.000	502.080
1202	1201	1203	1	109.500	292.880
1202	1201	1203	1	109.500	292.880
1190	1189	1198	1	109.500	355.640
1204	1201	1203	1	109.500	355.640
1196	1194	1197	1	109.500	355.640
1195	1194	1197	1	109.500	355.640
1205	1208	1209	1	180.000	167.360
1208	1209	1210	1	110.000	502.080
1208	1209	1211	1	110.000	502.080
1208	1209	1212	1	110.000	502.080
1209	1212	1213	1	180.000	167.360
1212	1213	1214	1	109.500	355.640
1212	1213	1215	1	109.500	355.640
1212	1213	1216	1	110.000	502.080
1213	1216	1217	1	180.000	167.360
1216	1217	1218	1	110.000	502.080
1216	1217	1219	1	110.000	502.080
1217	1219	1220	1	180.000	167.360
1219	1220	1221	1	110.000	502.080
1220	1221	1222	1	180.000	167.360
1221	1222	1223	1	109.500	355.640
1221	1222	1224	1	109.500	355.640
1223	1222	1224	1	109.500	292.880
1218	1217	1219	1	110.000	502.080
1214	1213	1215	1	109.500	292.880
1210	1209	1212	1	110.000	502.080
1206	1205	1207	1	110.000	502.080
1207	1205	1208	1	109.500	355.640
1206	1205	1208	1	110.000	502.080
1215	1213	1216	1	109.500	355.640
1210	1209	1211	1	110.000	502.080
1211	1209	1212	1	110.000	502.080
1214	1213	1216	1	109.500	355.640
1221	1222	1225	1	110.000	502.080
1216	1217	1226	1	110.000	502.080
1217	1226	1227	1	180.000	167.360
1226	1227	1228	1	110.000	502.080
1227	1228	1229	1	180.000	167.360
1228	1229	1230	1	109.500	355.640
1228	1229	1231	1	109.500	355.640
1228	1229	1232	1	110.000	502.080
1219	1217	1226	1	110.000	502.080
1230	1229	1231	1	109.500	292.880
1230	1229	1231	1	109.500	292.880
1218	1217	1226	1	109.500	355.640
1232	1229	1231	1	109.500	355.640
1224	1222	1225	1	109.500	355.640
1223	1222	1225	1	109.500	355.640
1233	1236	1237	1	180.000	167.360
1236	1237	1238	1	110.000	502.080
1236	1237	1239	1	110.000	502.080
1236	1237	1240	1	110.000	502.080
1237	1240	1241	1	180.000	167.360
1240	1241	1242	1	109.500	355.640
1240	1241	1243	1	109.500	355.640
1240	1241	1244	1	110.000	502.080
1241	1244	1245	1	180.000	167.360
1244	1245	1246	1	110.000	502.080
1244	1245	1247	1	110.000	502.080
1245	1247	1248	1	180.000	167.360
1247	1248	1249	1	110.000	502.080
1248	1249	1250	1	180.000	167.360
1249	1250	1251	1	109.500	355.640
1249	1250	1252	1	109.500	355.640
1251	1250	1252	1	109.500	292.880
1246	1245	1247	1	110.000	502.080
1242	1241	1243	1	109.500	292.880
1238	1237	1240	1	110.000	502.080
1234	1233	1235	1	110.000	502.080
1235	1233	1236	1	109.500	355.640
1234	1233	1236	1	110.000	502.080
1243	1241	1244	1	109.500	355.640
1238	1237	1239	1	110.000	502.080
1239	1237	1240	1	110.000	502.080
1242	1241	1244	1	109.500	355.640
1249	1250	1253	1	110.000	502.080
1244	1245	1254	1	110.000	502.080
1245	1254	1255	1	180.000	167.360
1254	1255	1256	1	110.000	502.080
1255	1256	1257	1	180.000	167.360
1256	1257	1258	1	109.500	355.640
1256	1257	1259	1	109.500	355.640
1256	1257	1260	1	110.000	502.080
1247	1245	1254	1	110.000	502.080
1258	1257	1259	1	109.500	292.880
1258	1257	1259	1	109.500	292.880
1246	1245	1254	1	109.500	355.640
1260	1257	1259	1	109.500	355.640
1252	1250	1253	1	109.500	355.640
1251	1250	1253	1	109.500	355.640
1261	1264	1265	1	180.000	167.360
1264	1265	1266	1	110.000	502.080
1264	1265	1267	1	110.000	502.080
1264	1265	1268	1	110.000	502.080
1265	1268	1269	1	180.000	167.360
1268	1269	1270	1	109.500	355.640
1268	1269	1271	1	109.500	355.640
1268	1269	1272	1	110.000	502.080
1269	1272	1273	1	180.000	167.360
1272	1273	1274	1	110.000	502.080
1272	1273	1275	1	110.000	502.080
1273	1275	1276	1	180.000	167.360
1275	1276	1277	1	110.000	502.080
1276	1277	1278	1	180.000	167.360
1277	1278	1279	1	109.500	355.640
1277	1278	1280	1	109.500	355.640
1279	1278	1280	1	109.500	292.880
1274	1273	1275	1	110.000	502.080
1270	1269	1271	1	109.500	292.880
1266	1265	1268	1	110.000	502.080
1262	1261	1263	1	110.000	502.080
1263	1261	1264	1	109.500	355.640
1262	1261	1264	1	110.000	502.080
1271	1269	1272	1	109.500	355.640
1266	1265	1267	1	110.000	502.080
1267	1265	1268	1	110.000	502.080
1270	1269	1272	1	109.500	355.640
1277	1278	1281	1	110.000	502.080
1272	1273	1282	1	110.000	502.080
1273	1282	1283	1	180.000	167.360
1282	1283	1284	1	110.000	502.080
1283	1284	1285	1	180.000	167.360
1284	1285	1286	1	109.500	355.640
1284	1285	1287	1	109.500	355.640
1284	1285	1288	1	110.000	502.080
1275	1273	1282	1	110.000	502.080
1286	1285	1287	1	109.500	292.880
1286	1285	1287	1	109.500	292.880
1274	1273	1282	1	109.500	355.640
1288	1285	1287	1	109.500	355.640
1280	1278	1281	1	109.500	355.640
1279	1278	1281	1	109.500	355.640
1289	1292	1293	1	180.000	167.360
1292	1293	1294	1	110.000	502.080
1292	1293	1295	1	110.000	502.080
1292	1293	1296	1	110.000	502.080
1293	1296	1297	1	180.000	167.360
1296	1297	1298	1	109.500	355.640
1296	1297	1299	1	109.500	355.640
1296	1297	1300	1	110.000	502.080
1297	1300	1301	1	180.000	167.360
1300	1301	1302	1	110.000	502.080
1300	1301	1303	1	110.000	502.080
1301	1303	1304	1	180.000	167.360
1303	1304	1305	1	110.000	502.080
1304	1305	1306	1	180.000	167.360
1305	1306	1307	1	109.500	355.640
1305	1306	1308	1	109.500	355.640
1307	1306	1308	1	109.500	292.880
1302	1301	1303	1	110.000	502.080
1298	1297	1299	1	109.500	292.880
1294	1293	1296	1	110.000	502.080
1290	1289	1291	1	110.000	502.080
1291	1289	1292	1	109.500	355.640
1290	1289	1292	1	110.000	502.080
1299	1297	1300	1	109.500	355.640
1294	1293	1295	1	110.000	502.080
1295	1293	1296	1	110.000	502.080
1298	1297	1300	1	109.500	355.640
1305	1306	1309	1	110.000	502.080
1300	1301	1310	1	110.000	502.080
1301	1310	1311	1	180.000	167.360
1310	1311	1312	1	110.000	502.080
1311	1312	1313	1	180.000	167.360
1312	1313	1314	1	109.500	355.640
1312	1313	1315	1	109.500	355.640
1312	1313	1316	1	110.000	502.080
1303	1301	1310	1	110.000	502.080
1314	1313	1315	1	109.500	292.880
1314	1313	1315	1	109.500	292.880
1302	1301	1310	1	109.500	355.640
1316	1313	1315	1	109.500	355.640
1308	1306	1309	1	109.500	355.640
1307	1306	1309	1	109.500	355.640
1317	1320	1321	1	180.000	167.360
1320	1321	1322	1	110.000	502.080
1320	1321	1323	1	110.000	502.080
1320	1321	1324	1	110.000	502.080
1321	1324	1325	1	180.000	167.360
1324	1325	1326	1	109.500	355.640
1324	1325	1327	1	109.500	355.640
1324	1325	1328	1	110.000	502.080
1325	1328	1329	1	180.000	167.360
1328	1329	1330	1	110.000	502.080
1328	1329	1331	1	110.000	502.080
1329	1331	1332	1	180.000	167.360
1331	1332	1333	1	110.000	502.080
1332	1333	1334	1	180.000	167.360
1333	1334	1335	1	109.500	355.640
1333	1334	1336	1	109.500	355.640
1335	1334	1336	1	109.500	292.880
1330	1329	1331	1	110.000	502.080
1326	1325	1327	1	109.500	292.880
1322	1321	1324	1	110.000	502.080
1318	1317	1319	1	110.000	502.080
1319	1317	1320	1	109.500	355.640
1318	1317	1320	1	110.000	502.080
1327	1325	1328	1	109.500	355.640
1322	1321	1323	1	110.000	502.080
1323	1321	1324	1	110.000	502.080
1326	1325	1328	1	109.500	355.640
1333	1334	1337	1	110.000	502.080
1328	1329	1338	1	110.000	502.080
1329	1338	1339	1	180.000	167.360
1338	1339	1340	1	110.000	502.080
1339	1340	1341	1	180.000	167.360
1340	1341	1342	1	109.500	355.640
1340	1341	1343	1	109.500	355.640
1340	1341	1344	1	110.000	502.080
1331	1329	1338	1	110.000	502.080
1342	1341	1343	1	109.500	292.880
1342	1341	1343	1	109.500	292.880
1330	1329	1338	1	109.500	355.640
1344	1341	1343	1	109.500	355.640
1336	1334	1337	1	109.500	355.640
1335	1334	1337	1	109.500	355.640
1345	1348	1349	1	180.000	167.360
1348	1349	1350	1	110.000	502.080
1348	1349	1351	1	110.000	502.080
1348	1349	1352	1	110.000	502.080
1349	1352	1353	1	180.000	167.360
1352	1353	1354	1	109.500	355.640
1352	1353	1355	1	109.500	355.640
1352	1353	1356	1	110.000	502.080
1353	1356	1357	1	180.000	167.360
1356	1357	1358	1	110.000	502.080
1356	1357	1359	1	110.000	502.080
1357	1359	1360	1	180.000	167.360
1359	1360	1361	1	110.000	502.080
1360	1361	1362	1	180.000	167.360
1361	1362	1363	1	109.500	355.640
1361	1362	1364	1	109.500	355.640
1363	1362	1364	1	109.500	292.880
1358	1357	1359	1	110.000	502.080
1354	1353	1355	1	109.500	292.880
1350	1349	1352	1	110.000	502.080
1346	1345	1347	1	110.000	502.080
1347	1345	1348	1	109.500	355.640
1346	1345	1348	1	110.000	502.080
1355	1353	1356	1	109.500	355.640
1350	1349	1351	1	110.000	502.080
1351	1349	1352	1	110.000	502.080
1354	1353	1356	1	109.500	355.640
1361	1362	1365	1	110.000	502.080
1356	1357	1366	1	110.000	502.080
1357	1366	1367	1	180.000	167.360
1366	1367	1368	1	110.000	502.080
1367	1368	1369	1	180.000	167.360
1368	1369	1370	1	109.500	355.640
1368	1369	1371	1	109.500	355.640
1368	1369	1372	1	110.000	502.080
1359	1357	1366	1	110.000	502.080
1370	1369	1371	1	109.500	292.880
1370	1369	1371	1	109.500	292.880
1358	1357	1366	1	109.500	355.640
1372	1369	1371	1	109.500	355.640
1364	1362	1365	1	109.500	355.640
1363	1362	1365	1	109.500	355.640
1373	1376	1377	1	180.000	167.360
1376	1377	1378	1	110.000	502.080
1376	1377	1379	1	110.000	502.080
1376	1377	1380	1	110.000	502.080
1377	1380	1381	1	180.000	167.360
1380	1381	1382	1	109.500	355.640
1380	1381	1383	1	109.500	355.640
1380	1381	1384	1	110.000	502.080
1381	1384	1385	1	180.000	167.360
1384	1385	1386	1	110.000	502.080
1384	1385	1387	1	110.000	502.080
1385	1387	1388	1	180.000	167.360
1387	1388	1389	1	110.000	502.080
1388	1389	1390	1	180.000	167.360
1389	1390	1391	1	109.500	355.640
1389	1390	1392	1	109.500	355.640
1391	1390	1392	1	109.500	292.880
1386	1385	1387	1	110.000	502.080
1382	1381	1383	1	109.500	292.880
1378	1377	1380	1	110.000	502.080
1374	1373	1375	1	110.000	502.080
1375	1373	1376	1	109.500	355.640
1374	1373	1376	1	110.000	502.080
1383	1381	1384	1	109.500	355.640
1378	1377	1379	1	110.000	502.080
1379	1377	1380	1	110.000	502.080
1382	1381	1384	1	109.500	355.640
1389	1390	1393	1	110.000	502.080
1384	1385	1394	1	110.000	502.080
1385	1394	1395	1	180.000	167.360
1394	1395	1396	1	110.000	502.080
1395	1396	1397	1	180.000	167.360
1396	1397	1398	1	109.500	355.640
1396	1397	1399	1	109.500	355.640
1396	1397	1400	1	110.000	502.080
1387	1385	1394	1	110.000	502.080
1398	1397	1399	1	109.500	292.880
1398	1397	1399	1	109.500	292.880
1386	1385	1394	1	109.500	355.640
1400	1397	1399	1	109.500	355.640
1392	1390	1393	1	109.500	355.640
1391	1390	1393	1	109.500	355.640
1401	1404	1405	1	180.000	167.360
1404	1405	1406	1	110.000	502.080
1404	1405	1407	1	110.000	502.080
1404	1405	1408	1	110.000	502.080
1405	1408	1409	1	180.000	167.360
1408	1409	1410	1	109.500	355.640
1408	1409	1411	1	109.500	355.640
1408	1409	1412	1	110.000	502.080
1409	1412	1413	1	180.000	167.360
1412	1413	1414	1	110.000	502.080
1412	1413	1415	1	110.000	502.080
1413	1415	1416	1	180.000	167.360
1415	1416	1417	1	110.000	502.080
1416	1417	1418	1	180.000	167.360
1417	1418	1419	1	109.500	355.640
1417	1418	1420	1	109.500	355.640
1419	1418	1420	1	109.500	292.880
1414	1413	1415	1	110.000	502.080
1410	1409	1411	1	109.500	292.880
1406	1405	1408	1	110.000	502.080
1402	1401	1403	1	110.000	502.080
1403	1401	1404	1	109.500	355.640
1402	1401	1404	1	110.000	502.080
1411	1409	1412	1	109.500	355.640
1406	1405	1407	1	110.000	502.080
1407	1405	1408	1	110.000	502.080
1410	1409	1412	1	109.500	355.640
1417	1418	1421	1	110.000	502.080
1412	1413	1422	1	110.000	502.080
1413	1422	1423	1	180.000	167.360
1422	1423	1424	1	110.000	502.080
1423	1424	1425	1	180.000	167.360
1424	1425	1426	1	109.500	355.640
1424	1425	1427	1	109.500	355.640
1424	1425	1428	1	110.000	502.080
1415	1413	1422	1	110.000	502.080
1426	1425	1427	1	109.500	292.880
1426	1425	1427	1	109.500	292.880
1414	1413	1422	1	109.500	355.640
1428	1425	1427	1	109.500	355.640
1420	1418	1421	1	109.500	355.640
1419	1418	1421	1	109.500	355.640
1429	1432	1433	1	180.000	167.360
1432	1433	1434	1	110.000	502.080
1432	1433	1435	1	110.000	502.080
1432	1433	1436	1	110.000	502.080
1433	1436	1437	1	180.000	167.360
1436	1437	1438	1	109.500	355.640
1436	1437	1439	1	109.500	355.640
1436	1437	1440	1	110.000	502.080
1437	1440	1441	1	180.000	167.360
1440	1441	1442	1	110.000	502.080
1440	1441	1443	1	110.000	502.080
1441	1443	1444	1	180.000	167.360
1443	1444	1445	1	110.000	502.080
1444	1445	1446	1	180.000	167.360
1445	1446	1447	1	109.500	355.640
1445	1446	1448	1	109.500	355.640
1447	1446	1448	1	109.500	292.880
1442	1441	1443	1	110.000	502.080
1438	1437	1439	1	109.500	292.880
1434	1433	1436	1	110.000	502.080
1430	1429	1431	1	110.000	502.080
1431	1429	1432	1	109.500	355.640
1430	1429	1432	1	110.000	502.080
1439	1437	1440	1	109.500	355.640
1434	1433	1435	1	110.000	502.080
1435	1433	1436	1	110.000	502.080
1438	1437	1440	1	109.500	355.640
1445	1446	1449	1	110.000	502.080
1440	1441	1450	1	110.000	502.080
1441	1450	1451	1	180.000	167.360
1450	1451	1452	1	110.000	502.080
1451	1452	1453	1	180.000	167.360
1452	1453	1454	1	109.500	355.640
1452	1453	1455	1	109.500	355.640
1452	1453	1456	1	110.000	502.080
1443	1441	1450	1	110.000	502.080
1454	1453	1455	1	109.500	292.880
1454	1453	1455	1	109.500	292.880
1442	1441	1450	1	109.500	355.640
1456	1453	1455	1	109.500	355.640
1448	1446	1449	1	109.500	355.640
1447	1446	1449	1	109.500	355.640
1457	1460	1461	1	180.000	167.360
1460	1461	1462	1	110.000	502.080
1460	1461	1463	1	110.000	502.080
1460	1461	1464	1	110.000	502.080
1461	1464	1465	1	180.000	167.360
1464	1465	1466	1	109.500	355.640
1464	1465	1467	1	109.500	355.640
1464	1465	1468	1	110.000	502.080
1465	1468	1469	1	180.000	167.360
1468	1469	1470	1	110.000	502.080
1468	1469	1471	1	110.000	502.080
1469	1471	1472	1	180.000	167.360
1471	1472	1473	1	110.000	502.080
1472	1473	1474	1	180.000	167.360
1473	1474	1475	1	109.500	355.640
1473	1474	1476	1	109.500	355.640
1475	1474	1476	1	109.500	292.880
1470	1469	1471	1	110.000	502.080
1466	1465	1467	1	109.500	292.880
1462	1461	1464	1	110.000	502.080
1458	1457	1459	1	110.000	502.080
1459	1457	1460	1	109.500	355.640
1458	1457	1460	1	110.000	502.080
1467	1465	1468	1	109.500	355.640
1462	1461	1463	1	110.000	502.080
1463	1461	1464	1	110.000	502.080
1466	1465	1468	1	109.500	355.640
1473	1474	1477	1	110.000	502.080
1468	1469	1478	1	110.000	502.080
1469	1478	1479	1	180.000	167.360
1478	1479	1480	1	110.000	502.080
1479	1480	1481	1	180.000	167.360
1480	1481	1482	1	109.500	355.640
1480	1481	1483	1	109.500	355.640
1480	1481	1484	1	110.000	502.080
1471	1469	1478	1	110.000	502.080
1482	1481	1483	1	109.500	292.880
1482	1481	1483	1	109.500	292.880
1470	1469	1478	1	109.500	355.640
1484	1481	1483	1	109.500	355.640
1476	1474	1477	1	109.500	355.640
1475	1474	1477	1	109.500	355.640
1485	1488	1489	1	180.000	167.360
1488	1489	1490	1	110.000	502.080
1488	1489	1491	1	110.000	502.080
1488	1489	1492	1	110.000	502.080
1489	1492	1493	1	180.000	167.360
1492	1493	1494	1	109.500	355.640
1492	1493	1495	1	109.500	355.640
1492	1493	1496	1	110.000	502.080
1493	1496	1497	1	180.000	167.360
1496	1497	1498	1	110.000	502.080
1496	1497	1499	1	110.000	502.080
1497	1499	1500	1	180.000	167.360
1499	1500	1501	1	110.000	502.080
1500	1501	1502	1	180.000	167.360
1501	1502	1503	1	109.500	355.640
1501	1502	1504	1	109.500	355.640
1503	1502	1504	1	109.500	292.880
1498	1497	1499	1	110.000	502.080
1494	1493	1495	1	109.500	292.880
1490	1489	1492	1	110.000	502.080
1486	1485	1487	1	110.000	502.080
1487	1485	1488	1	109.500	355.640
1486	1485	1488	1	110.000	502.080
1495	1493	1496	1	109.500	355.640
1490	1489	1491	1	110.000	502.080
1491	1489	1492	1	110.000	502.080
1494	1493	1496	1	109.500	355.640
1501	1502	1505	1	110.000	502.080
1496	1497	1506	1	110.000	502.080
1497	1506	1507	1	180.000	167.360
1506	1507	1508	1	110.000	502.080
1507	1508	1509	1	180.000	167.360
1508	1509	1510	1	109.500	355.640
1508	1509	1511	1	109.500	355.640
1508	1509	1512	1	110.000	502.080
1499	1497	1506	1	110.000	502.080
1510	1509	1511	1	109.500	292.880
1510	1509	1511	1	109.500	292.880
1498	1497	1506	1	109.500	355.640
1512	1509	1511	1	109.500	355.640
1504	1502	1505	1	109.500	355.640
1503	1502	1505	1	109.500	355.640
1513	1516	1517	1	180.000	167.360
1516	1517	1518	1	110.000	502.080
1516	1517	1519	1	110.000	502.080
1516	1517	1520	1	110.000	502.080
1517	1520	1521	1	180.000	167.360
1520	1521	1522	1	109.500	355.640
1520	1521	1523	1	109.500	355.640
1520	1521	1524	1	110.000	502.080
1521	1524	1525	1	180.000	167.360
1524	1525	1526	1	110.000	502.080
1524	1525	1527	1	110.000	502.080
1525	1527	1528	1	180.000	167.360
1527	1528	1529	1	110.000	502.080
1528	1529	1530	1	180.000	167.360
1529	1530	1531	1	109.500	355.640
1529	1530	1532	1	109.500	355.640
1531	1530	1532	1	109.500	292.880
1526	1525	1527	1	110.000	502.080
1522	1521	1523	1	109.500	292.880
1518	1517	1520	1	110.000	502.080
1514	1513	1515	1	110.000	502.080
1515	1513	1516	1	109.500	355.640
1514	1513	1516	1	110.000	502.080
1523	1521	1524	1	109.500	355.640
1518	1517	1519	1	110.000	502.080
1519	1517	1520	1	110.000	502.080
1522	1521	1524	1	109.500	355.640
1529	1530	1533	1	110.000	502.080
1524	1525	1534	1	110.000	502.080
1525	1534	1535	1	180.000	167.360
1534	1535	1536	1	110.000	502.080
1535	1536	1537	1	180.000	167.360
1536	1537	1538	1	109.500	355.640
1536	1537	1539	1	109.500	355.640
1536	1537	1540	1	110.000	502.080
1527	1525	1534	1	110.000	502.080
1538	1537	1539	1	109.500	292.880
1538	1537	1539	1	109.500	292.880
1526	1525	1534	1	109.500	355.640
1540	1537	1539	1	109.500	355.640
1532	1530	1533	1	109.500	355.640
1531	1530	1533	1	109.500	355.640
1541	1544	1545	1	180.000	167.360
1544	1545	1546	1	110.000	502.080
1544	1545	1547	1	110.000	502.080
1544	1545	1548	1	110.000	502.080
1545	1548	1549	1	180.000	167.360
1548	1549	1550	1	109.500	355.640
1548	1549	1551	1	109.500	355.640
1548	1549	1552	1	110.000	502.080
1549	1552	1553	1	180.000	167.360
1552	1553	1554	1	110.000	502.080
1552	1553	1555	1	110.000	502.080
1553	1555	1556	1	180.000	167.360
1555	1556	1557	1	110.000	502.080
1556	1557	1558	1	180.000	167.360
1557	1558	1559	1	109.500	355.640
1557	1558	1560	1	109.500	355.640
1559	1558	1560	1	109.500	292.880
1554	1553	1555	1	110.000	502.080
1550	1549	1551	1	109.500	292.880
1546	1545	1548	1	110.000	502.080
1542	1541	1543	1	110.000	502.080
1543	1541	1544	1	109.500	355.640
1542	1541	1544	1	110.000	502.080
1551	1549	1552	1	109.500	355.640
1546	1545	1547	1	110.000	502.080
1547	1545	1548	1	110.000	502.080
1550	1549	1552	1	109.500	355.640
1557	1558	1561	1	110.000	502.080
1552	1553	1562	1	110.000	502.080
1553	1562	1563	1	180.000	167.360
1562	1563	1564	1	110.000	502.080
1563	1564	1565	1	180.000	167.360
1564	1565	1566	1	109.500	355.640
1564	1565	1567	1	109.500	355.640
1564	1565	1568	1	110.000	502.080
1555	1553	1562	1	110.000	502.080
1566	1565	1567	1	109.500	292.880
1566	1565	1567	1	109.500	292.880
1554	1553	1562	1	109.500	355.640
1568	1565	1567	1	109.500	355.640
1560	1558	1561	1	109.500	355.640
1559	1558	1561	1	109.500	355.640
1569	1572	1573	1	180.000	167.360
1572	1573	1574	1	110.000	502.080
1572	1573	1575	1	110.000	502.080
1572	1573	1576	1	110.000	502.080
1573	1576	1577	1	180.000	167.360
1576	1577	1578	1	109.500	355.640
1576	1577	1579	1	109.500	355.640
1576	1577	1580	1	110.000	502.080
1577	1580	1581	1	180.000	167.360
1580	1581	1582	1	110.000	502.080
1580	1581	1583	1	110.000	502.080
1581	1583	1584	1	180.000	167.360
1583	1584	1585	1	110.000	502.080
1584	1585	1586	1	180.000	167.360
1585	1586	1587	1	109.500	355.640
1585	1586	1588	1	109.500	355.640
1587	1586	1588	1	109.500	292.880
1582	1581	1583	1	110.000	502.080
1578	1577	1579	1	109.500	292.880
1574	1573	1576	1	110.000	502.080
1570	1569	1571	1	110.000	502.080
1571	1569	1572	1	109.500	355.640
1570	1569	1572	1	110.000	502.080
1579	1577	1580	1	109.500	355.640
1574	1573	1575	1	110.000	502.080
1575	1573	1576	1	110.000	502.080
1578	1577	1580	1	109.500	355.640
1585	1586	1589	1	110.000	502.080
1580	1581	1590	1	110.000	502.080
1581	1590	1591	1	180.000	167.360
1590	1591	1592	1	110.000	502.080
1591	1592	1593	1	180.000	167.360
1592	1593	1594	1	109.500	355.640
1592	1593	1595	1	109.500	355.640
1592	1593	1596	1	110.000	502.080
1583	1581	1590	1	110.000	502.080
1594	1593	1595	1	109.500	292.880
1594	1593	1595	1	109.500	292.880
1582	1581	1590	1	109.500	355.640
1596	1593	1595	1	109.500	355.640
1588	1586	1589	1	109.500	355.640
1587	1586	1589	1	109.500	355.640
1597	1600	1601	1	180.000	167.360
1600	1601	1602	1	110.000	502.080
1600	1601	1603	1	110.000	502.080
1600	1601	1604	1	110.000	502.080
1601	1604	1605	1	180.000	167.360
1604	1605	1606	1	109.500	355.640
1604	1605	1607	1	109.500	355.640
1604	1605	1608	1	110.000	502.080
1605	1608	1609	1	180.000	167.360
1608	1609	1610	1	110.000	502.080
1608	1609	1611	1	110.000	502.080
1609	1611	1612	1	180.000	167.360
1611	1612	1613	1	110.000	502.080
1612	1613	1614	1	180.000	167.360
1613	1614	1615	1	109.500	355.640
1613	1614	1616	1	109.500	355.640
1615	1614	1616	1	109.500	292.880
1610	1609	1611	1	110.000	502.080
1606	1605	1607	1	109.500	292.880
1602	1601	1604	1	110.000	502.080
1598	1597	1599	1	110.000	502.080
1599	1597	1600	1	109.500	355.640
1598	1597	1600	1	110.000	502.080
1607	1605	1608	1	109.500	355.640
1602	1601	1603	1	110.000	502.080
1603	1601	1604	1	110.000	502.080
1606	1605	1608	1	109.500	355.640
1613	1614	1617	1	110.000	502.080
1608	1609	1618	1	110.000	502.080
1609	1618	1619	1	180.000	167.360
1618	1619	1620	1	110.000	502.080
1619	1620	1621	1	180.000	167.360
1620	1621	1622	1	109.500	355.640
1620	1621	1623	1	109.500	355.640
1620	1621	1624	1	110.000	502.080
1611	1609	1618	1	110.000	502.080
1622	1621	1623	1	109.500	292.880
1622	1621	1623	1	109.500	292.880
1610	1609	1618	1	109.500	355.640
1624	1621	1623	1	109.500	355.640
1616	1614	1617	1	109.500	355.640
1615	1614	1617	1	109.500	355.640
1625	1628	1629	1	180.000	167.360
1628	1629	1630	1	110.000	502.080
1628	1629	1631	1	110.000	502.080
1628	1629	1632	1	110.000	502.080
1629	1632	1633	1	180.000	167.360
1632	1633	1634	1	109.500	355.640
1632	1633	1635	1	109.500	355.640
1632	1633	1636	1	110.000	502.080
1633	1636	1637	1	180.000	167.360
1636	1637	1638	1	110.000	502.080
1636	1637	1639	1	110.000	502.080
1637	1639	1640	1	180.000	167.360
1639	1640	1641	1	110.000	502.080
1640	1641	1642	1	180.000	167.360
1641	1642	1643	1	109.500	355.640
1641	1642	1644	1	109.500	355.640
1643	1642	1644	1	109.500	292.880
1638	1637	1639	1	110.000	502.080
1634	1633	1635	1	109.500	292.880
1630	1629	1632	1	110.000	502.080
1626	1625	1627	1	110.000	502.080
1627	1625	1628	1	109.500	355.640
1626	1625	1628	1	110.000	502.080
1635	1633	1636	1	109.500	355.640
1630	1629	1631	1	110.000	502.080
1631	1629	1632	1	110.000	502.080
1634	1633	1636	1	109.500	355.640
1641	1642	1645	1	110.000	502.080
1636	1637	1646	1	110.000	502.080
1637	1646	1647	1	180.000	167.360
1646	1647	1648	1	110.000	502.080
1647	1648	1649	1	180.000	167.360
1648	1649	1650	1	109.500	355.640
1648	1649	1651	1	109.500	355.640
1648	1649	1652	1	110.000	502.080
1639	1637	1646	1	110.000	502.080
1650	1649	1651	1	109.500	292.880
1650	1649	1651	1	109.500	292.880
1638	1637	1646	1	109.500	355.640
1652	1649	1651	1	109.500	355.640
1644	1642	1645	1	109.500	355.640
1643	1642	1645	1	109.500	355.640
1653	1656	1657	1	180.000	167.360
1656	1657	1658	1	110.000	502.080
1656	1657	1659	1	110.000	502.080
1656	1657	1660	1	110.000	502.080
1657	1660	1661	1	180.000	167.360
1660	1661	1662	1	109.500	355.640
1660	1661	1663	1	109.500	355.640
1660	1661	1664	1	110.000	502.080
1661	1664	1665	1	180.000	167.360
1664	1665	1666	1	110.000	502.080
1664	1665	1667	1	110.000	502.080
1665	1667	1668	1	180.000	167.360
1667	1668	1669	1	110.000	502.080
1668	1669	1670	1	180.000	167.360
1669	1670	1671	1	109.500	355.640
1669	1670	1672	1	109.500	355.640
1671	1670	1672	1	109.500	292.880
1666	1665	1667	1	110.000	502.080
1662	1661	1663	1	109.500	292.880
1658	1657	1660	1	110.000	502.080
1654	1653	1655	1	110.000	502.080
1655	1653	1656	1	109.500	355.640
1654	1653	1656	1	110.000	502.080
1663	1661	1664	1	109.500	355.640
1658	1657	1659	1	110.000	502.080
1659	1657	1660	1	110.000	502.080
1662	1661	1664	1	109.500	355.640
1669	1670	1673	1	110.000	502.080
1664	1665	1674	1	110.000	502.080
1665	1674	1675	1	180.000	167.360
1674	1675	1676	1	110.000	502.080
1675	1676	1677	1	180.000	167.360
1676	1677	1678	1	109.500	355.640
1676	1677	1679	1	109.500	355.640
1676	1677	1680	1	110.000	502.080
1667	1665	1674	1	110.000	502.080
1678	1677	1679	1	109.500	292.880
1678	1677	1679	1	109.500	292.880
1666	1665	1674	1	109.500	355.640
1680	1677	1679	1	109.500	355.640
1672	1670	1673	1	109.500	355.640
1671	1670	1673	1	109.500	355.640
1681	1684	1685	1	180.000	167.360
1684	1685	1686	1	110.000	502.080
1684	1685	1687	1	110.000	502.080
1684	1685	1688	1	110.000	502.080
1685	1688	1689	1	180.000	167.360
1688	1689	1690	1	109.500	355.640
1688	1689	1691	1	109.500	355.640
1688	1689	1692	1	110.000	502.080
1689	1692	1693	1	180.000	167.360
1692	1693	1694	1	110.000	502.080
1692	1693	1695	1	110.000	502.080
1693	1695	1696	1	180.000	167.360
1695	1696	1697	1	110.000	502.080
1696	1697	1698	1	180.000	167.360
1697	1698	1699	1	109.500	355.640
1697	1698	1700	1	109.500	355.640
1699	1698	1700	1	109.500	292.880
1694	1693	1695	1	110.000	502.080
1690	1689	1691	1	109.500	292.880
1686	1685	1688	1	110.000	502.080
1682	1681	1683	1	110.000	502.080
1683	1681	1684	1	109.500	355.640
1682	1681	1684	1	110.000	502.080
1691	1689	1692	1	109.500	355.640
1686	1685	1687	1	110.000	502.080
1687	1685	1688	1	110.000	502.080
1690	1689	1692	1	109.500	355.640
1697	1698	1701	1	110.000	502.080
1692	1693	1702	1	110.000	502.080
1693	1702	1703	1	180.000	167.360
1702	1703	1704	1	110.000	502.080
1703	1704	1705	1	180.000	167.360
1704	1705	1706	1	109.500	355.640
1704	1705	1707	1	109.500	355.640
1704	1705	1708	1	110.000	502.080
1695	1693	1702	1	110.000	502.080
1706	1705	1707	1	109.500	292.880
1706	1705	1707	1	109.500	292.880
1694	1693	1702	1	109.500	355.640
1708	1705	1707	1	109.500	355.640
1700	1698	1701	1	109.500	355.640
1699	1698	1701	1	109.500	355.640
1709	1712	1713	1	180.000	167.360
1712	1713	1714	1	110.000	502.080
1712	1713	1715	1	110.000	502.080
1712	1713	1716	1	110.000	502.080
1713	1716	1717	1	180.000	167.360
1716	1717	1718	1	109.500	355.640
1716	1717	1719	1	109.500	355.640
1716	1717	1720	1	110.000	502.080
1717	1720	1721	1	180.000	167.360
1720	1721	1722	1	110.000	502.080
1720	1721	1723	1	110.000	502.080
1721	1723	1724	1	180.000	167.360
1723	1724	1725	1	110.000	502.080
1724	1725	1726	1	180.000	167.360
1725	1726	1727	1	109.500	355.640
1725	1726	1728	1	109.500	355.640
1727	1726	1728	1	109.500	292.880
1722	1721	1723	1	110.000	502.080
1718	1717	1719	1	109.500	292.880
1714	1713	1716	1	110.000	502.080
1710	1709	1711	1	110.000	502.080
1711	1709	1712	1	109.500	355.640
1710	1709	1712	1	110.000	502.080
1719	1717	1720	1	109.500	355.640
1714	1713	1715	1	110.000	502.080
1715	1713	1716	1	110.000	502.080
1718	1717	1720	1	109.500	355.640
1725	1726	1729	1	110.000	502.080
1720	1721	1730	1	110.000	502.080
1721	1730	1731	1	180.000	167.360
1730	1731	1732	1	110.000	502.080
1731	1732	1733	1	180.000	167.360
1732	1733	1734	1	109.500	355.640
1732	1733	1735	1	109.500	355.640
1732	1733	1736	1	110.000	502.080
1723	1721	1730	1	110.000	502.080
1734	1733	1735	1	109.500	292.880
1734	1733	1735	1	109.500	292.880
1722	1721	1730	1	109.500	355.640
1736	1733	1735	1	109.500	355.640
1728	1726	1729	1	109.500	355.640
1727	1726	1729	1	109.500	355.640
1737	1740	1741	1	180.000	167.360
1740	1741	1742	1	110.000	502.080
1740	1741	1743	1	110.000	502.080
1740	1741	1744	1	110.000	502.080
1741	1744	1745	1	180.000	167.360
1744	1745	1746	1	109.500	355.640
1744	1745	1747	1	109.500	355.640
1744	1745	1748	1	110.000	502.080
1745	1748	1749	1	180.000	167.360
1748	1749	1750	1	110.000	502.080
1748	1749	1751	1	110.000	502.080
1749	1751	1752	1	180.000	167.360
1751	1752	1753	1	110.000	502.080
1752	1753	1754	1	180.000	167.360
1753	1754	1755	1	109.500	355.640
1753	1754	1756	1	109.500	355.640
1755	1754	1756	1	109.500	292.880
1750	1749	1751	1	110.000	502.080
1746	1745	1747	1	109.500	292.880
1742	1741	1744	1	110.000	502.080
1738	1737	1739	1	110.000	502.080
1739	1737	1740	1	109.500	355.640
1738	1737	1740	1	110.000	502.080
1747	1745	1748	1	109.500	355.640
1742	1741	1743	1	110.000	502.080
1743	1741	1744	1	110.000	502.080
1746	1745	1748	1	109.500	355.640
1753	1754	1757	1	110.000	502.080
1748	1749	1758	1	110.000	502.080
1749	1758	1759	1	180.000	167.360
1758	1759	1760	1	110.000	502.080
1759	1760	1761	1	180.000	167.360
1760	1761	1762	1	109.500	355.640
1760	1761	1763	1	109.500	355.640
1760	1761	1764	1	110.000	502.080
1751	1749	1758	1	110.000	502.080
1762	1761	1763	1	109.500	292.880
1762	1761	1763	1	109.500	292.880
1750	1749	1758	1	109.500	355.640
1764	1761	1763	1	109.500	355.640
1756	1754	1757	1	109.500	355.640
1755	1754	1757	1	109.500	355.640
1765	1768	1769	1	180.000	167.360
1768	1769	1770	1	110.000	502.080
1768	1769	1771	1	110.000	502.080
1768	1769	1772	1	110.000	502.080
1769	1772	1773	1	180.000	167.360
1772	1773	1774	1	109.500	355.640
1772	1773	1775	1	109.500	355.640
1772	1773	1776	1	110.000	502.080
1773	1776	1777	1	180.000	167.360
1776	1777	1778	1	110.000	502.080
1776	1777	1779	1	110.000	502.080
1777	1779	1780	1	180.000	167.360
1779	1780	1781	1	110.000	502.080
1780	1781	1782	1	180.000	167.360
1781	1782	1783	1	109.500	355.640
1781	1782	1784	1	109.500	355.640
1783	1782	1784	1	109.500	292.880
1778	1777	1779	1	110.000	502.080
1774	1773	1775	1	109.500	292.880
1770	1769	1772	1	110.000	502.080
1766	1765	1767	1	110.000	502.080
1767	1765	1768	1	109.500	355.640
1766	1765	1768	1	110.000	502.080
1775	1773	1776	1	109.500	355.640
1770	1769	1771	1	110.000	502.080
1771	1769	1772	1	110.000	502.080
1774	1773	1776	1	109.500	355.640
1781	1782	1785	1	110.000	502.080
1776	1777	1786	1	110.000	502.080
1777	1786	1787	1	180.000	167.360
1786	1787	1788	1	110.000	502.080
1787	1788	1789	1	180.000	167.360
1788	1789	1790	1	109.500	355.640
1788	1789	1791	1	109.500	355.640
1788	1789	1792	1	110.000	502.080
1779	1777	1786	1	110.000	502.080
1790	1789	1791	1	109.500	292.880
1790	1789	1791	1	109.500	292.880
1778	1777	1786	1	109.500	355.640
1792	1789	1791	1	109.500	355.640
1784	1782	1785	1	109.500	355.640
1783	1782	1785	1	109.500	355.640
22	23	35	1	110.0	502.08
22	23	49	1	110.0	502.08
24	23	35	1	110.0	502.08
24	23	49	1	110.0	502.08
35	23	49	1	110.0	502.08
50	51	63	1	110.0	502.08
50	51	77	1	110.0	502.08
52	51	63	1	110.0	502.08
52	51	77	1	110.0	502.08
63	51	77	1	110.0	502.08
78	79	91	1	110.0	502.08
78	79	105	1	110.0	502.08
80	79	91	1	110.0	502.08
80	79	105	1	110.0	502.08
91	79	105	1	110.0	502.08
106	107	119	1	110.0	502.08
106	107	133	1	110.0	502.08
108	107	119	1	110.0	502.08
108	107	133	1	110.0	502.08
119	107	133	1	110.0	502.08
134	135	147	1	110.0	502.08
134	135	161	1	110.0	502.08
136	135	147	1	110.0	502.08
136	135	161	1	110.0	502.08
147	135	161	1	110.0	502.08
162	163	175	1	110.0	502.08
162	163	189	1	110.0	502.08
164	163	175	1	110.0	502.08
164	163	189	1	110.0	502.08
175	163	189	1	110.0	502.08
190	191	203	1	110.0	502.08
190	191	217	1	110.0	502.08
192	191	203	1	110.0	502.08
192	191	217	1	110.0	502.08
203	191	217	1	110.0	502.08
246	247	259	1	110.0	502.08
246	247	273	1	110.0	502.08
248	247	259	1	110.0	502.08
248	247	273	1	110.0	502.08
259	247	273	1	110.0	502.08
274	275	287	1	110.0	502.08
274	275	301	1	110.0	502.08
276	275	287	1	110.0	502.08
276	275	301	1	110.0	502.08
287	275	301	1	110.0	502.08
302	303	315	1	110.0	502.08
302	303	329	1	110.0	502.08
304	303	315	1	110.0	502.08
304	303	329	1	110.0	502.08
315	303	329	1	110.0	502.08
330	331	343	1	110.0	502.08
330	331	357	1	110.0	502.08
332	331	343	1	110.0	502.08
332	331	357	1	110.0	502.08
343	331	357	1	110.0	502.08
358	359	371	1	110.0	502.08
358	359	385	1	110.0	502.08
360	359	371	1	110.0	502.08
360	359	385	1	110.0	502.08
371	359	385	1	110.0	502.08
386	387	399	1	110.0	502.08
386	387	413	1	110.0	502.08
388	387	399	1	110.0	502.08
388	387	413	1	110.0	502.08
399	387	413	1	110.0	502.08
414	415	427	1	110.0	502.08
414	415	441	1	110.0	502.08
416	415	427	1	110.0	502.08
416	415	441	1	110.0	502.08
427	415	441	1	110.0	502.08
470	471	483	1	110.0	502.08
470	471	497	1	110.0	502.08
472	471	483	1	110.0	502.08
472	471	497	1	110.0	502.08
483	471	497	1	110.0	502.08
498	499	511	1	110.0	502.08
498	499	525	1	110.0	502.08
500	499	511	1	110.0	502.08
500	499	525	1	110.0	502.08
511	499	525	1	110.0	502.08
526	527	539	1	110.0	502.08
526	527	553	1	110.0	502.08
528	527	539	1	110.0	502.08
528	527	553	1	110.0	502.08
539	527	553	1	110.0	502.08
554	555	567	1	110.0	502.08
554	555	581	1	110.0	502.08
556	555	567	1	110.0	502.08
556	555	581	1	110.0	502.08
567	555	581	1	110.0	502.08
582	583	595	1	110.0	502.08
582	583	609	1	110.0	502.08
584	583	595	1	110.0	502.08
584	583	609	1	110.0	502.08
595	583	609	1	110.0	502.08
610	611	623	1	110.0	502.08
610	611	637	1	110.0	502.08
612	611	623	1	110.0	502.08
612	611	637	1	110.0	502.08
623	611	637	1	110.0	502.08
638	639	651	1	110.0	502.08
638	639	665	1	110.0	502.08
640	639	651	1	110.0	502.08
640	639	665	1	110.0	502.08
651	639	665	1	110.0	502.08
694	695	707	1	110.0	502.08
694	695	721	1	110.0	502.08
696	695	707	1	110.0	502.08
696	695	721	1	110.0	502.08
707	695	721	1	110.0	502.08
722	723	735	1	110.0	502.08
722	723	749	1	110.0	502.08
724	723	735	1	110.0	502.08
724	723	749	1	110.0	502.08
735	723	749	1	110.0	502.08
750	751	763	1	110.0	502.08
750	751	777	1	110.0	502.08
752	751	763	1	110.0	502.08
752	751	777	1	110.0	502.08
763	751	777	1	110.0	502.08
778	779	791	1	110.0	502.08
778	779	805	1	110.0	502.08
780	779	791	1	110.0	502.08
780	779	805	1	110.0	502.08
791	779	805	1	110.0	502.08
806	807	819	1	110.0	502.08
806	807	833	1	110.0	502.08
808	807	819	1	110.0	502.08
808	807	833	1	110.0	502.08
819	807	833	1	110.0	502.08
834	835	847	1	110.0	502.08
834	835	861	1	110.0	502.08
836	835	847	1	110.0	502.08
836	835	861	1	110.0	502.08
847	835	861	1	110.0	502.08
862	863	875	1	110.0	502.08
862	863	889	1	110.0	502.08
864	863	875	1	110.0	502.08
864	863	889	1	110.0	502.08
875	863	889	1	110.0	502.08
918	919	931	1	110.0	502.08
918	919	945	1	110.0	502.08
920	919	931	1	110.0	502.08
920	919	945	1	110.0	502.08
931	919	945	1	110.0	502.08
946	947	959	1	110.0	502.08
946	947	973	1	110.0	502.08
948	947	959	1	110.0	502.08
948	947	973	1	110.0	502.08
959	947	973	1	110.0	502.08
974	975	987	1	110.0	502.08
974	975	1001	1	110.0	502.08
976	975	987	1	110.0	502.08
976	975	1001	1	110.0	502.08
987	975	1001	1	110.0	502.08
1002	1003	1015	1	110.0	502.08
1002	1003	1029	1	110.0	502.08
1004	1003	1015	1	110.0	502.08
1004	1003	1029	1	110.0	502.08
1015	1003	1029	1	110.0	502.08
1030	1031	1043	1	110.0	502.08
1030	1031	1057	1	110.0	502.08
1032	1031	1043	1	110.0	502.08
1032	1031	1057	1	110.0	502.08
1043	1031	1057	1	110.0	502.08
1058	1059	1071	1	110.0	502.08
1058	1059	1085	1	110.0	502.08
1060	1059	1071	1	110.0	502.08
1060	1059	1085	1	110.0	502.08
1071	1059	1085	1	110.0	502.08
1086	1087	1099	1	110.0	502.08
1086	1087	1113	1	110.0	502.08
1088	1087	1099	1	110.0	502.08
1088	1087	1113	1	110.0	502.08
1099	1087	1113	1	110.0	502.08
1142	1143	1155	1	110.0	502.08
1142	1143	1169	1	110.0	502.08
1144	1143	1155	1	110.0	502.08
1144	1143	1169	1	110.0	502.08
1155	1143	1169	1	110.0	502.08
1170	1171	1183	1	110.0	502.08
1170	1171	1197	1	110.0	502.08
1172	1171	1183	1	110.0	502.08
1172	1171	1197	1	110.0	502.08
1183	1171	1197	1	110.0	502.08
1198	1199	1211	1	110.0	502.08
1198	1199	1225	1	110.0	502.08
1200	1199	1211	1	110.0	502.08
1200	1199	1225	1	110.0	502.08
1211	1199	1225	1	110.0	502.08
1226	1227	1239	1	110.0	502.08
1226	1227	1253	1	110.0	502.08
1228	1227	1239	1	110.0	502.08
1228	1227	1253	1	110.0	502.08
1239	1227	1253	1	110.0	502.08
1254	1255	1267	1	110.0	502.08
1254	1255	1281	1	110.0	502.08
1256	1255	1267	1	110.0	502.08
1256	1255	1281	1	110.0	502.08
1267	1255	1281	1	110.0	502.08
1282	1283	1295	1	110.0	502.08
1282	1283	1309	1	110.0	502.08
1284	1283	1295	1	110.0	502.08
1284	1283	1309	1	110.0	502.08
1295	1283	1309	1	110.0	502.08
1310	1311	1323	1	110.0	502.08
1310	1311	1337	1	110.0	502.08
1312	1311	1323	1	110.0	502.08
1312	1311	1337	1	110.0	502.08
1323	1311	1337	1	110.0	502.08
1366	1367	1379	1	110.0	502.08
1366	1367	1393	1	110.0	502.08
1368	1367	1379	1	110.0	502.08
1368	1367	1393	1	110.0	502.08
1379	1367	1393	1	110.0	502.08
1394	1395	1407	1	110.0	502.08
1394	1395	1421	1	110.0	502.08
1396	1395	1407	1	110.0	502.08
1396	1395	1421	1	110.0	502.08
1407	1395	1421	1	110.0	502.08
1422	1423	1435	1	110.0	502.08
1422	1423	1449	1	110.0	502.08
1424	1423	1435	1	110.0	502.08
1424	1423	1449	1	110.0	502.08
1435	1423	1449	1	110.0	502.08
1450	1451	1463	1	110.0	502.08
1450	1451	1477	1	110.0	502.08
1452	1451	1463	1	110.0	502.08
1452	1451	1477	1	110.0	502.08
1463	1451	1477	1	110.0	502.08
1478	1479	1491	1	110.0	502.08
1478	1479	1505	1	110.0	502.08
1480	1479	1491	1	110.0	502.08
1480	1479	1505	1	110.0	502.08
1491	1479	1505	1	110.0	502.08
1506	1507	1519	1	110.0	502.08
1506	1507	1533	1	110.0	502.08
1508	1507	1519	1	110.0	502.08
1508	1507	1533	1	110.0	502.08
1519	1507	1533	1	110.0	502.08
1534	1535	1547	1	110.0	502.08
1534	1535	1561	1	110.0	502.08
1536	1535	1547	1	110.0	502.08
1536	1535	1561	1	110.0	502.08
1547	1535	1561	1	110.0	502.08
1590	1591	1603	1	110.0	502.08
1590	1591	1617	1	110.0	502.08
1592	1591	1603	1	110.0	502.08
1592	1591	1617	1	110.0	502.08
1603	1591	1617	1	110.0	502.08
1618	1619	1631	1	110.0	502.08
1618	1619	1645	1	110.0	502.08
1620	1619	1631	1	110.0	502.08
1620	1619	1645	1	110.0	502.08
1631	1619	1645	1	110.0	502.08
1646	1647	1659	1	110.0	502.08
1646	1647	1673	1	110.0	502.08
1648	1647	1659	1	110.0	502.08
1648	1647	1673	1	110.0	502.08
1659	1647	1673	1	110.0	502.08
1674	1675	1687	1	110.0	502.08
1674	1675	1701	1	110.0	502.08
1676	1675	1687	1	110.0	502.08
1676	1675	1701	1	110.0	502.08
1687	1675	1701	1	110.0	502.08
1702	1703	1715	1	110.0	502.08
1702	1703	1729	1	110.0	502.08
1704	1703	1715	1	110.0	502.08
1704	1703	1729	1	110.0	502.08
1715	1703	1729	1	110.0	502.08
1730	1731	1743	1	110.0	502.08
1730	1731	1757	1	110.0	502.08
1732	1731	1743	1	110.0	502.08
1732	1731	1757	1	110.0	502.08
1743	1731	1757	1	110.0	502.08
1758	1759	1771	1	110.0	502.08
1758	1759	1785	1	110.0	502.08
1760	1759	1771	1	110.0	502.08
1760	1759	1785	1	110.0	502.08
1771	1759	1785	1	110.0	502.08
218	219	7	1	110.0	502.08
218	219	21	1	110.0	502.08
220	219	7	1	110.0	502.08
220	219	21	1	110.0	502.08
7	219	21	1	110.0	502.08
442	443	231	1	110.0	502.08
442	443	245	1	110.0	502.08
444	443	231	1	110.0	502.08
444	443	245	1	110.0	502.08
231	443	245	1	110.0	502.08
666	667	455	1	110.0	502.08
666	667	469	1	110.0	502.08
668	667	455	1	110.0	502.08
668	667	469	1	110.0	502.08
455	667	469	1	110.0	502.08
890	891	679	1	110.0	502.08
890	891	693	1	110.0	502.08
892	891	679	1	110.0	502.08
892	891	693	1	110.0	502.08
679	891	693	1	110.0	502.08
1114	1115	903	1	110.0	502.08
1114	1115	917	1	110.0	502.08
1116	1115	903	1	110.0	502.08
1116	1115	917	1	110.0	502.08
903	1115	917	1	110.0	502.08
1338	1339	1127	1	110.0	502.08
1338	1339	1141	1	110.0	502.08
1340	1339	1127	1	110.0	502.08
1340	1339	1141	1	110.0	502.08
1127	1339	1141	1	110.0	502.08
1562	1563	1351	1	110.0	502.08
1562	1563	1365	1	110.0	502.08
1564	1563	1351	1	110.0	502.08
1564	1563	1365	1	110.0	502.08
1351	1563	1365	1	110.0	502.08
1786	1787	1575	1	110.0	502.08
1786	1787	1589	1	110.0	502.08
1788	1787	1575	1	110.0	502.08
1788	1787	1589	1	110.0	502.08
1575	1787	1589	1	110.0	502.08
15	16	230	1	110.0	502.08
15	16	252	1	110.0	502.08
17	16	230	1	110.0	502.08
17	16	252	1	110.0	502.08
230	16	252	1	110.0	502.08
43	44	258	1	110.0	502.08
43	44	280	1	110.0	502.08
45	44	258	1	110.0	502.08
45	44	280	1	110.0	502.08
258	44	280	1	110.0	502.08
71	72	286	1	110.0	502.08
71	72	308	1	110.0	502.08
73	72	286	1	110.0	502.08
73	72	308	1	110.0	502.08
286	72	308	1	110.0	502.08
99	100	314	1	110.0	502.08
99	100	336	1	110.0	502.08
101	100	314	1	110.0	502.08
101	100	336	1	110.0	502.08
314	100	336	1	110.0	502.08
127	128	342	1	110.0	502.08
127	128	364	1	110.0	502.08
129	128	342	1	110.0	502.08
129	128	364	1	110.0	502.08
342	128	364	1	110.0	502.08
155	156	370	1	110.0	502.08
155	156	392	1	110.0	502.08
157	156	370	1	110.0	502.08
157	156	392	1	110.0	502.08
370	156	392	1	110.0	502.08
183	184	398	1	110.0	502.08
183	184	420	1	110.0	502.08
185	184	398	1	110.0	502.08
185	184	420	1	110.0	502.08
398	184	420	1	110.0	502.08
211	212	426	1	110.0	502.08
211	212	448	1	110.0	502.08
213	212	426	1	110.0	502.08
213	212	448	1	110.0	502.08
426	212	448	1	110.0	502.08
239	240	454	1	110.0	502.08
239	240	476	1	110.0	502.08
241	240	454	1	110.0	502.08
241	240	476	1	110.0	502.08
454	240	476	1	110.0	502.08
267	268	482	1	110.0	502.08
267	268	504	1	110.0	502.08
269	268	482	1	110.0	502.08
269	268	504	1	110.0	502.08
482	268	504	1	110.0	502.08
295	296	510	1	110.0	502.08
295	296	532	1	110.0	502.08
297	296	510	1	110.0	502.08
297	296	532	1	110.0	502.08
510	296	532	1	110.0	502.08
323	324	538	1	110.0	502.08
323	324	560	1	110.0	502.08
325	324	538	1	110.0	502.08
325	324	560	1	110.0	502.08
538	324	560	1	110.0	502.08
351	352	566	1	110.0	502.08
351	352	588	1	110.0	502.08
353	352	566	1	110.0	502.08
353	352	588	1	110.0	502.08
566	352	588	1	110.0	502.08
379	380	594	1	110.0	502.08
379	380	616	1	110.0	502.08
381	380	594	1	110.0	502.08
381	380	616	1	110.0	502.08
594	380	616	1	110.0	502.08
407	408	622	1	110.0	502.08
407	408	644	1	110.0	502.08
409	408	622	1	110.0	502.08
409	408	644	1	110.0	502.08
622	408	644	1	110.0	502.08
435	436	650	1	110.0	502.08
435	436	672	1	110.0	502.08
437	436	650	1	110.0	502.08
437	436	672	1	110.0	502.08
650	436	672	1	110.0	502.08
463	464	678	1	110.0	502.08
463	464	700	1	110.0	502.08
465	464	678	1	110.0	502.08
465	464	700	1	110.0	502.08
678	464	700	1	110.0	502.08
491	492	706	1	110.0	502.08
491	492	728	1	110.0	502.08
493	492	706	1	110.0	502.08
493	492	728	1	110.0	502.08
706	492	728	1	110.0	502.08
519	520	734	1	110.0	502.08
519	520	756	1	110.0	502.08
521	520	734	1	110.0	502.08
521	520	756	1	110.0	502.08
734	520	756	1	110.0	502.08
547	548	762	1	110.0	502.08
547	548	784	1	110.0	502.08
549	548	762	1	110.0	502.08
549	548	784	1	110.0	502.08
762	548	784	1	110.0	502.08
575	576	790	1	110.0	502.08
575	576	812	1	110.0	502.08
577	576	790	1	110.0	502.08
577	576	812	1	110.0	502.08
790	576	812	1	110.0	502.08
603	604	818	1	110.0	502.08
603	604	840	1	110.0	502.08
605	604	818	1	110.0	502.08
605	604	840	1	110.0	502.08
818	604	840	1	110.0	502.08
631	632	846	1	110.0	502.08
631	632	868	1	110.0	502.08
633	632	846	1	110.0	502.08
633	632	868	1	110.0	502.08
846	632	868	1	110.0	502.08
659	660	874	1	110.0	502.08
659	660	896	1	110.0	502.08
661	660	874	1	110.0	502.08
661	660	896	1	110.0	502.08
874	660	896	1	110.0	502.08
687	688	902	1	110.0	502.08
687	688	924	1	110.0	502.08
689	688	902	1	110.0	502.08
689	688	924	1	110.0	502.08
902	688	924	1	110.0	502.08
715	716	930	1	110.0	502.08
715	716	952	1	110.0	502.08
717	716	930	1	110.0	502.08
717	716	952	1	110.0	502.08
930	716	952	1	110.0	502.08
743	744	958	1	110.0	502.08
743	744	980	1	110.0	502.08
745	744	958	1	110.0	502.08
745	744	980	1	110.0	502.08
958	744	980	1	110.0	502.08
771	772	986	1	110.0	502.08
771	772	1008	1	110.0	502.08
773	772	986	1	110.0	502.08
773	772	1008	1	110.0	502.08
986	772	1008	1	110.0	502.08
799	800	1014	1	110.0	502.08
799	800	1036	1	110.0	502.08
801	800	1014	1	110.0	502.08
801	800	1036	1	110.0	502.08
1014	800	1036	1	110.0	502.08
827	828	1042	1	110.0	502.08
827	828	1064	1	110.0	502.08
829	828	1042	1	110.0	502.08
829	828	1064	1	110.0	502.08
1042	828	1064	1	110.0	502.08
855	856	1070	1	110.0	502.08
855	856	1092	1	110.0	502.08
857	856	1070	1	110.0	502.08
857	856	1092	1	110.0	502.08
1070	856	1092	1	110.0	502.08
883	884	1098	1	110.0	502.08
883	884	1120	1	110.0	502.08
885	884	1098	1	110.0	502.08
885	884	1120	1	110.0	502.08
1098	884	1120	1	110.0	502.08
911	912	1126	1	110.0	502.08
911	912	1148	1	110.0	502.08
913	912	1126	1	110.0	502.08
913	912	1148	1	110.0	502.08
1126	912	1148	1	110.0	502.08
939	940	1154	1	110.0	502.08
939	940	1176	1	110.0	502.08
941	940	1154	1	110.0	502.08
941	940	1176	1	110.0	502.08
1154	940	1176	1	110.0	502.08
967	968	1182	1	110.0	502.08
967	968	1204	1	110.0	502.08
969	968	1182	1	110.0	502.08
969	968	1204	1	110.0	502.08
1182	968	1204	1	110.0	502.08
995	996	1210	1	110.0	502.08
995	996	1232	1	110.0	502.08
997	996	1210	1	110.0	502.08
997	996	1232	1	110.0	502.08
1210	996	1232	1	110.0	502.08
1023	1024	1238	1	110.0	502.08
1023	1024	1260	1	110.0	502.08
1025	1024	1238	1	110.0	502.08
1025	1024	1260	1	110.0	502.08
1238	1024	1260	1	110.0	502.08
1051	1052	1266	1	110.0	502.08
1051	1052	1288	1	110.0	502.08
1053	1052	1266	1	110.0	502.08
1053	1052	1288	1	110.0	502.08
1266	1052	1288	1	110.0	502.08
1079	1080	1294	1	110.0	502.08
1079	1080	1316	1	110.0	502.08
1081	1080	1294	1	110.0	502.08
1081	1080	1316	1	110.0	502.08
1294	1080	1316	1	110.0	502.08
1107	1108	1322	1	110.0	502.08
1107	1108	1344	1	110.0	502.08
1109	1108	1322	1	110.0	502.08
1109	1108	1344	1	110.0	502.08
1322	1108	1344	1	110.0	502.08
1135	1136	1350	1	110.0	502.08
1135	1136	1372	1	110.0	502.08
1137	1136	1350	1	110.0	502.08
1137	1136	1372	1	110.0	502.08
1350	1136	1372	1	110.0	502.08
1163	1164	1378	1	110.0	502.08
1163	1164	1400	1	110.0	502.08
1165	1164	1378	1	110.0	502.08
1165	1164	1400	1	110.0	502.08
1378	1164	1400	1	110.0	502.08
1191	1192	1406	1	110.0	502.08
1191	1192	1428	1	110.0	502.08
1193	1192	1406	1	110.0	502.08
1193	1192	1428	1	110.0	502.08
1406	1192	1428	1	110.0	502.08
1219	1220	1434	1	110.0	502.08
1219	1220	1456	1	110.0	502.08
1221	1220	1434	1	110.0	502.08
1221	1220	1456	1	110.0	502.08
1434	1220	1456	1	110.0	502.08
1247	1248	1462	1	110.0	502.08
1247	1248	1484	1	110.0	502.08
1249	1248	1462	1	110.0	502.08
1249	1248	1484	1	110.0	502.08
1462	1248	1484	1	110.0	502.08
1275	1276	1490	1	110.0	502.08
1275	1276	1512	1	110.0	502.08
1277	1276	1490	1	110.0	502.08
1277	1276	1512	1	110.0	502.08
1490	1276	1512	1	110.0	502.08
1303	1304	1518	1	110.0	502.08
1303	1304	1540	1	110.0	502.08
1305	1304	1518	1	110.0	502.08
1305	1304	1540	1	110.0	502.08
1518	1304	1540	1	110.0	502.08
1331	1332	1546	1	110.0	502.08
1331	1332	1568	1	110.0	502.08
1333	1332	1546	1	110.0	502.08
1333	1332	1568	1	110.0	502.08
1546	1332	1568	1	110.0	502.08
1359	1360	1574	1	110.0	502.08
1359	1360	1596	1	110.0	502.08
1361	1360	1574	1	110.0	502.08
1361	1360	1596	1	110.0	502.08
1574	1360	1596	1	110.0	502.08
1387	1388	1602	1	110.0	502.08
1387	1388	1624	1	110.0	502.08
1389	1388	1602	1	110.0	502.08
1389	1388	1624	1	110.0	502.08
1602	1388	1624	1	110.0	502.08
1415	1416	1630	1	110.0	502.08
1415	1416	1652	1	110.0	502.08
1417	1416	1630	1	110.0	502.08
1417	1416	1652	1	110.0	502.08
1630	1416	1652	1	110.0	502.08
1443	1444	1658	1	110.0	502.08
1443	1444	1680	1	110.0	502.08
1445	1444	1658	1	110.0	502.08
1445	1444	1680	1	110.0	502.08
1658	1444	1680	1	110.0	502.08
1471	1472	1686	1	110.0	502.08
1471	1472	1708	1	110.0	502.08
1473	1472	1686	1	110.0	502.08
1473	1472	1708	1	110.0	502.08
1686	1472	1708	1	110.0	502.08
1499	1500	1714	1	110.0	502.08
1499	1500	1736	1	110.0	502.08
1501	1500	1714	1	110.0	502.08
1501	1500	1736	1	110.0	502.08
1714	1500	1736	1	110.0	502.08
1527	1528	1742	1	110.0	502.08
1527	1528	1764	1	110.0	502.08
1529	1528	1742	1	110.0	502.08
1529	1528	1764	1	110.0	502.08
1742	1528	1764	1	110.0	502.08
1555	1556	1770	1	110.0	502.08
1555	1556	1792	1	110.0	502.08
1557	1556	1770	1	110.0	502.08
1557	1556	1792	1	110.0	502.08
1770	1556	1792	1	110.0	502.08
1583	1584	6	1	110.0	502.08
1583	1584	28	1	110.0	502.08
1585	1584	6	1	110.0	502.08
1585	1584	28	1	110.0	502.08
6	1584	28	1	110.0	502.08
1611	1612	34	1	110.0	502.08
1611	1612	56	1	110.0	502.08
1613	1612	34	1	110.0	502.08
1613	1612	56	1	110.0	502.08
34	1612	56	1	110.0	502.08
1639	1640	62	1	110.0	502.08
1639	1640	84	1	110.0	502.08
1641	1640	62	1	110.0	502.08
1641	1640	84	1	110.0	502.08
62	1640	84	1	110.0	502.08
1667	1668	90	1	110.0	502.08
1667	1668	112	1	110.0	502.08
1669	1668	90	1	110.0	502.08
1669	1668	112	1	110.0	502.08
90	1668	112	1	110.0	502.08
1695	1696	118	1	110.0	502.08
1695	1696	140	1	110.0	502.08
1697	1696	118	1	110.0	502.08
1697	1696	140	1	110.0	502.08
118	1696	140	1	110.0	502.08
1723	1724	146	1	110.0	502.08
1723	1724	168	1	110.0	502.08
1725	1724	146	1	110.0	502.08
1725	1724	168	1	110.0	502.08
146	1724	168	1	110.0	502.08
1751	1752	174	1	110.0	502.08
1751	1752	196	1	110.0	502.08
1753	1752	174	1	110.0	502.08
1753	1752	196	1	110.0	502.08
174	1752	196	1	110.0	502.08
1779	1780	202	1	110.0	502.08
1779	1780	224	1	110.0	502.08
1781	1780	202	1	110.0	502.08
1781	1780	224	1	110.0	502.08
202	1780	224	1	110.0	502.08
4	1	1778	1	110.0	502.08
2	1	1778	1	110.000	502.080
3	1	1778	1	109.5	292.88
228	225	210	1	110.0	502.08
226	225	210	1	110.000	502.080
227	225	210	1	109.5	292.88
452	449	434	1	110.0	502.08
450	449	434	1	110.000	502.080
451	449	434	1	109.5	292.88
676	673	658	1	110.0	502.08
674	673	658	1	110.000	502.080
675	673	658	1	109.5	292.88
900	897	882	1	110.0	502.08
898	897	882	1	110.000	502.080
899	897	882	1	109.5	292.88
1124	1121	1106	1	110.0	502.08
1122	1121	1106	1	110.000	502.080
1123	1121	1106	1	109.5	292.88
1348	1345	1330	1	110.0	502.08
1346	1345	1330	1	110.000	502.080
1347	1345	1330	1	109.5	292.88
1572	1569	1554	1	110.0	502.08
1570	1569	1554	1	110.000	502.080
1571	1569	1554	1	109.5	292.88
32	29	1582	1	110.0	502.08
30	29	1582	1	110.000	502.080
31	29	1582	1	109.5	292.88
60	57	1610	1	110.0	502.08
58	57	1610	1	110.000	502.080
59	57	1610	1	109.5	292.88
88	85	1638	1	110.0	502.08
86	85	1638	1	110.000	502.080
87	85	1638	1	109.5	292.88
116	113	1666	1	110.0	502.08
114	113	1666	1	110.000	502.080
115	113	1666	1	109.5	292.88
144	141	1694	1	110.0	502.08
142	141	1694	1	110.000	502.080
143	141	1694	1	109.5	292.88
172	169	1722	1	110.0	502.08
170	169	1722	1	110.000	502.080
171	169	1722	1	109.5	292.88
200	197	1750	1	110.0	502.08
198	197	1750	1	110.000	502.080
199	197	1750	1	109.5	292.88
256	253	14	1	110.0	502.08
254	253	14	1	110.000	502.080
255	253	14	1	109.5	292.88
13	14	253	1	180.0	167.36
284	281	42	1	110.0	502.08
282	281	42	1	110.000	502.080
283	281	42	1	109.5	292.88
41	42	281	1	180.0	167.36
312	309	70	1	110.0	502.08
310	309	70	1	110.000	502.080
311	309	70	1	109.5	292.88
69	70	309	1	180.0	167.36
340	337	98	1	110.0	502.08
338	337	98	1	110.000	502.080
339	337	98	1	109.5	292.88
97	98	337	1	180.0	167.36
368	365	126	1	110.0	502.08
366	365	126	1	110.000	502.080
367	365	126	1	109.5	292.88
125	126	365	1	180.0	167.36
396	393	154	1	110.0	502.08
394	393	154	1	110.000	502.080
395	393	154	1	109.5	292.88
153	154	393	1	180.0	167.36
424	421	182	1	110.0	502.08
422	421	182	1	110.000	502.080
423	421	182	1	109.5	292.88
181	182	421	1	180.0	167.36
480	477	238	1	110.0	502.08
478	477	238	1	110.000	502.080
479	477	238	1	109.5	292.88
237	238	477	1	180.0	167.36
508	505	266	1	110.0	502.08
506	505	266	1	110.000	502.080
507	505	266	1	109.5	292.88
265	266	505	1	180.0	167.36
536	533	294	1	110.0	502.08
534	533	294	1	110.000	502.080
535	533	294	1	109.5	292.88
293	294	533	1	180.0	167.36
564	561	322	1	110.0	502.08
562	561	322	1	110.000	502.080
563	561	322	1	109.5	292.88
321	322	561	1	180.0	167.36
592	589	350	1	110.0	502.08
590	589	350	1	110.000	502.080
591	589	350	1	109.5	292.88
349	350	589	1	180.0	167.36
620	617	378	1	110.0	502.08
618	617	378	1	110.000	502.080
619	617	378	1	109.5	292.88
377	378	617	1	180.0	167.36
648	645	406	1	110.0	502.08
646	645	406	1	110.000	502.080
647	645	406	1	109.5	292.88
405	406	645	1	180.0	167.36
704	701	462	1	110.0	502.08
702	701	462	1	110.000	502.080
703	701	462	1	109.5	292.88
461	462	701	1	180.0	167.36
732	729	490	1	110.0	502.08
730	729	490	1	110.000	502.080
731	729	490	1	109.5	292.88
489	490	729	1	180.0	167.36
760	757	518	1	110.0	502.08
758	757	518	1	110.000	502.080
759	757	518	1	109.5	292.88
517	518	757	1	180.0	167.36
788	785	546	1	110.0	502.08
786	785	546	1	110.000	502.080
787	785	546	1	109.5	292.88
545	546	785	1	180.0	167.36
816	813	574	1	110.0	502.08
814	813	574	1	110.000	502.080
815	813	574	1	109.5	292.88
573	574	813	1	180.0	167.36
844	841	602	1	110.0	502.08
842	841	602	1	110.000	502.080
843	841	602	1	109.5	292.88
601	602	841	1	180.0	167.36
872	869	630	1	110.0	502.08
870	869	630	1	110.000	502.080
871	869	630	1	109.5	292.88
629	630	869	1	180.0	167.36
928	925	686	1	110.0	502.08
926	925	686	1	110.000	502.080
927	925	686	1	109.5	292.88
685	686	925	1	180.0	167.36
956	953	714	1	110.0	502.08
954	953	714	1	110.000	502.080
955	953	714	1	109.5	292.88
713	714	953	1	180.0	167.36
984	981	742	1	110.0	502.08
982	981	742	1	110.000	502.080
983	981	742	1	109.5	292.88
741	742	981	1	180.0	167.36
1012	1009	770	1	110.0	502.08
1010	1009	770	1	110.000	502.080
1011	1009	770	1	109.5	292.88
769	770	1009	1	180.0	167.36
1040	1037	798	1	110.0	502.08
1038	1037	798	1	110.000	502.080
1039	1037	798	1	109.5	292.88
797	798	1037	1	180.0	167.36
1068	1065	826	1	110.0	502.08
1066	1065	826	1	110.000	502.080
1067	1065	826	1	109.5	292.88
825	826	1065	1	180.0	167.36
1096	1093	854	1	110.0	502.08
1094	1093	854	1	110.000	502.080
1095	1093	854	1	109.5	292.88
853	854	1093	1	180.0	167.36
1152	1149	910	1	110.0	502.08
1150	1149	910	1	110.000	502.080
1151	1149	910	1	109.5	292.88
909	910	1149	1	180.0	167.36
1180	1177	938	1	110.0	502.08
1178	1177	938	1	110.000	502.080
1179	1177	938	1	109.5	292.88
937	938	1177	1	180.0	167.36
1208	1205	966	1	110.0	502.08
1206	1205	966	1	110.000	502.080
1207	1205	966	1	109.5	292.88
965	966	1205	1	180.0	167.36
1236	1233	994	1	110.0	502.08
1234	1233	994	1	110.000	502.080
1235	1233	994	1	109.5	292.88
993	994	1233	1	180.0	167.36
1264	1261	1022	1	110.0	502.08
1262	1261	1022	1	110.000	502.080
1263	1261	1022	1	109.5	292.88
1021	1022	1261	1	180.0	167.36
1292	1289	1050	1	110.0	502.08
1290	1289	1050	1	110.000	502.080
1291	1289	1050	1	109.5	292.88
1049	1050	1289	1	180.0	167.36
1320	1317	1078	1	110.0	502.08
1318	1317	1078	1	110.000	502.080
1319	1317	1078	1	109.5	292.88
1077	1078	1317	1	180.0	167.36
1376	1373	1134	1	110.0	502.08
1374	1373	1134	1	110.000	502.080
1375	1373	1134	1	109.5	292.88
1133	1134	1373	1	180.0	167.36
1404	1401	1162	1	110.0	502.08
1402	1401	1162	1	110.000	502.080
1403	1401	1162	1	109.5	292.88
1161	1162	1401	1	180.0	167.36
1432	1429	1190	1	110.0	502.08
1430	1429	1190	1	110.000	502.080
1431	1429	1190	1	109.5	292.88
1189	1190	1429	1	180.0	167.36
1460	1457	1218	1	110.0	502.08
1458	1457	1218	1	110.000	502.080
1459	1457	1218	1	109.5	292.88
1217	1218	1457	1	180.0	167.36
1488	1485	1246	1	110.0	502.08
1486	1485	1246	1	110.000	502.080
1487	1485	1246	1	109.5	292.88
1245	1246	1485	1	180.0	167.36
1516	1513	1274	1	110.0	502.08
1514	1513	1274	1	110.000	502.080
1515	1513	1274	1	109.5	292.88
1273	1274	1513	1	180.0	167.36
1544	1541	1302	1	110.0	502.08
1542	1541	1302	1	110.000	502.080
1543	1541	1302	1	109.5	292.88
1301	1302	1541	1	180.0	167.36
1600	1597	1358	1	110.0	502.08
1598	1597	1358	1	110.000	502.080
1599	1597	1358	1	109.5	292.88
1357	1358	1597	1	180.0	167.36
1628	1625	1386	1	110.0	502.08
1626	1625	1386	1	110.000	502.080
1627	1625	1386	1	109.5	292.88
1385	1386	1625	1	180.0	167.36
1656	1653	1414	1	110.0	502.08
1654	1653	1414	1	110.000	502.080
1655	1653	1414	1	109.5	292.88
1413	1414	1653	1	180.0	167.36
1684	1681	1442	1	110.0	502.08
1682	1681	1442	1	110.000	502.080
1683	1681	1442	1	109.5	292.88
1441	1442	1681	1	180.0	167.36
1712	1709	1470	1	110.0	502.08
1710	1709	1470	1	110.000	502.080
1711	1709	1470	1	109.5	292.88
1469	1470	1709	1	180.0	167.36
1740	1737	1498	1	110.0	502.08
1738	1737	1498	1	110.000	502.080
1739	1737	1498	1	109.5	292.88
1497	1498	1737	1	180.0	167.36
1768	1765	1526	1	110.0	502.08
1766	1765	1526	1	110.000	502.080
1767	1765	1526	1	109.5	292.88
1525	1526	1765	1	180.0	167.36
1	3	1793	1	109.5	292.88
9	11	1794	1	109.5	292.88
9	10	1795	1	109.5	292.88
29	31	1796	1	109.5	292.88
37	39	1797	1	109.5	292.88
37	38	1798	1	109.5	292.88
57	59	1799	1	109.5	292.88
65	67	1800	1	109.5	292.88
65	66	1801	1	109.5	292.88
85	87	1802	1	109.5	292.88
93	95	1803	1	109.5	292.88
93	94	1804	1	109.5	292.88
113	115	1805	1	109.5	292.88
121	123	1806	1	109.5	292.88
121	122	1807	1	109.5	292.88
141	143	1808	1	109.5	292.88
149	151	1809	1	109.5	292.88
149	150	1810	1	109.5	292.88
169	171	1811	1	109.5	292.88
177	179	1812	1	109.5	292.88
177	178	1813	1	109.5	292.88
197	199	1814	1	109.5	292.88
205	207	1815	1	109.5	292.88
205	206	1816	1	109.5	292.88
225	227	1817	1	109.5	292.88
233	235	1818	1	109.5	292.88
233	234	1819	1	109.5	292.88
253	255	1820	1	109.5	292.88
261	263	1821	1	109.5	292.88
261	262	1822	1	109.5	292.88
281	283	1823	1	109.5	292.88
289	291	1824	1	109.5	292.88
289	290	1825	1	109.5	292.88
309	311	1826	1	109.5	292.88
317	319	1827	1	109.5	292.88
317	318	1828	1	109.5	292.88
337	339	1829	1	109.5	292.88
345	347	1830	1	109.5	292.88
345	346	1831	1	109.5	292.88
365	367	1832	1	109.5	292.88
373	375	1833	1	109.5	292.88
373	374	1834	1	109.5	292.88
393	395	1835	1	109.5	292.88
401	403	1836	1	109.5	292.88
401	402	1837	1	109.5	292.88
421	423	1838	1	109.5	292.88
429	431	1839	1	109.5	292.88
429	430	1840	1	109.5	292.88
449	451	1841	1	109.5	292.88
457	459	1842	1	109.5	292.88
457	458	1843	1	109.5	292.88
477	479	1844	1	109.5	292.88
485	487	1845	1	109.5	292.88
485	486	1846	1	109.5	292.88
505	507	1847	1	109.5	292.88
513	515	1848	1	109.5	292.88
513	514	1849	1	109.5	292.88
533	535	1850	1	109.5	292.88
541	543	1851	1	109.5	292.88
541	542	1852	1	109.5	292.88
561	563	1853	1	109.5	292.88
569	571	1854	1	109.5	292.88
569	570	1855	1	109.5	292.88
589	591	1856	1	109.5	292.88
597	599	1857	1	109.5	292.88
597	598	1858	1	109.5	292.88
617	619	1859	1	109.5	292.88
625	627	1860	1	109.5	292.88
625	626	1861	1	109.5	292.88
645	647	1862	1	109.5	292.88
653	655	1863	1	109.5	292.88
653	654	1864	1	109.5	292.88
673	675	1865	1	109.5	292.88
681	683	1866	1	109.5	292.88
681	682	1867	1	109.5	292.88
701	703	1868	1	109.5	292.88
709	711	1869	1	109.5	292.88
709	710	1870	1	109.5	292.88
729	731	1871	1	109.5	292.88
737	739	1872	1	109.5	292.88
737	738	1873	1	109.5	292.88
757	759	1874	1	109.5	292.88
765	767	1875	1	109.5	292.88
765	766	1876	1	109.5	292.88
785	787	1877	1	109.5	292.88
793	795	1878	1	109.5	292.88
793	794	1879	1	109.5	292.88
813	815	1880	1	109.5	292.88
821	823	1881	1	109.5	292.88
821	822	1882	1	109.5	292.88
841	843	1883	1	109.5	292.88
849	851	1884	1	109.5	292.88
849	850	1885	1	109.5	292.88
869	871	1886	1	109.5	292.88
877	879	1887	1	109.5	292.88
877	878	1888	1	109.5	292.88
897	899	1889	1	109.5	292.88
905	907	1890	1	109.5	292.88
905	906	1891	1	109.5	292.88
925	927	1892	1	109.5	292.88
933	935	1893	1	109.5	292.88
933	934	1894	1	109.5	292.88
953	955	1895	1	109.5	292.88
961	963	1896	1	109.5	292.88
961	962	1897	1	109.5	292.88
981	983	1898	1	109.5	292.88
989	991	1899	1	109.5	292.88
989	990	1900	1	109.5	292.88
1009	1011	1901	1	109.5	292.88
1017	1019	1902	1	109.5	292.88
1017	1018	1903	1	109.5	292.88
1037	1039	1904	1	109.5	292.88
1045	1047	1905	1	109.5	292.88
1045	1046	1906	1	109.5	292.88
1065	1067	1907	1	109.5	292.88
1073	1075	1908	1	109.5	292.88
1073	1074	1909	1	109.5	292.88
1093	1095	1910	1	109.5	292.88
1101	1103	1911	1	109.5	292.88
1101	1102	1912	1	109.5	292.88
1121	1123	1913	1	109.5	292.88
1129	1131	1914	1	109.5	292.88
1129	1130	1915	1	109.5	292.88
1149	1151	1916	1	109.5	292.88
1157	1159	1917	1	109.5	292.88
1157	1158	1918	1	109.5	292.88
1177	1179	1919	1	109.5	292.88
1185	1187	1920	1	109.5	292.88
1185	1186	1921	1	109.5	292.88
1205	1207	1922	1	109.5	292.88
1213	1215	1923	1	109.5	292.88
1213	1214	1924	1	109.5	292.88
1233	1235	1925	1	109.5	292.88
1241	1243	1926	1	109.5	292.88
1241	1242	1927	1	109.5	292.88
1261	1263	1928	1	109.5	292.88
1269	1271	1929	1	109.5	292.88
1269	1270	1930	1	109.5	292.88
1289	1291	1931	1	109.5	292.88
1297	1299	1932	1	109.5	292.88
1297	1298	1933	1	109.5	292.88
1317	1319	1934	1	109.5	292.88
1325	1327	1935	1	109.5	292.88
1325	1326	1936	1	109.5	292.88
1345	1347	1937	1	109.5	292.88
1353	1355	1938	1	109.5	292.88
1353	1354	1939	1	109.5	292.88
1373	1375	1940	1	109.5	292.88
1381	1383	1941	1	109.5	292.88
1381	1382	1942	1	109.5	292.88
1401	1403	1943	1	109.5	292.88
1409	1411	1944	1	109.5	292.88
1409	1410	1945	1	109.5	292.88
1429	1431	1946	1	109.5	292.88
1437	1439	1947	1	109.5	292.88
1437	1438	1948	1	109.5	292.88
1457	1459	1949	1	109.5	292.88
1465	1467	1950	1	109.5	292.88
1465	1466	1951	1	109.5	292.88
1485	1487	1952	1	109.5	292.88
1493	1495	1953	1	109.5	292.88
1493	1494	1954	1	109.5	292.88
1513	1515	1955	1	109.5	292.88
1521	1523	1956	1	109.5	292.88
1521	1522	1957	1	109.5	292.88
1541	1543	1958	1	109.5	292.88
1549	1551	1959	1	109.5	292.88
1549	1550	1960	1	109.5	292.88
1569	1571	1961	1	109.5	292.88
1577	1579	1962	1	109.5	292.88
1577	1578	1963	1	109.5	292.88
1597	1599	1964	1	109.5	292.88
1605	1607	1965	1	109.5	292.88
1605	1606	1966	1	109.5	292.88
1625	1627	1967	1	109.5	292.88
1633	1635	1968	1	109.5	292.88
1633	1634	1969	1	109.5	292.88
1653	1655	1970	1	109.5	292.88
1661	1663	1971	1	109.5	292.88
1661	1662	1972	1	109.5	292.88
1681	1683	1973	1	109.5	292.88
1689	1691	1974	1	109.5	292.88
1689	1690	1975	1	109.5	292.88
1709	1711	1976	1	109.5	292.88
1717	1719	1977	1	109.5	292.88
1717	1718	1978	1	109.5	292.88
1737	1739	1979	1	109.5	292.88
1745	1747	1980	1	109.5	292.88
1745	1746	1981	1	109.5	292.88
1765	1767	1982	1	109.5	292.88
1773	1775	1983	1	109.5	292.88
1773	1774	1984	1	109.5	292.88
1985	1986	1987	1	107.200	433.462
1986	1987	1988	1	109.470	470.282
1987	1988	1989	1	109.500	418.400
1988	1989	1990	1	111.000	627.600
1989	1990	1991	1	120.000	585.760
1990	1991	1992	1	120.000	527.184
1991	1992	1993	1	120.000	527.184
1992	1993	1994	1	120.000	527.184
1993	1994	1995	1	120.000	527.184
1994	1995	1996	1	120.000	527.184
1995	1996	1997	1	120.000	527.184
1996	1997	1998	1	109.5	0.0
1996	1997	1999	1	120.000	527.184
1993	1994	2000	1	120.000	527.184
1992	1993	2001	1	120.000	527.184
1989	1990	2002	1	120.000	585.760
1985	1986	2003	1	116.000	418.400
1986	2003	2004	1	120.000	585.760
2003	2004	2005	1	120.000	527.184
2004	2005	2006	1	120.000	527.184
2005	2006	2007	1	124.000	585.760
2006	2007	2008	1	117.000	711.280
2007	2008	2009	1	124.000	585.760
2008	2009	2010	1	124.000	585.760
2009	2010	2011	1	124.000	585.760
2010	2011	2012	1	124.000	585.760
2011	2012	2013	1	124.000	585.760
2012	2013	2014	1	124.000	585.760
2013	2014	2015	1	117.000	711.280
2014	2015	2016	1	118.760	505.678
2015	2016	2017	1	124.000	585.760
2016	2017	2018	1	180.000	1255.200
2015	2016	2019	1	117.000	711.280
2016	2019	2020	1	124.000	585.760
2019	2020	2021	1	122.000	669.440
2020	2021	2022	1	180.000	1255.200
2019	2020	2023	1	122.000	669.440
2020	2023	2024	1	180.000	1255.200
2016	2019	2025	1	110.000	585.760
2014	2015	2026	1	124.000	585.760
2015	2026	2027	1	109.500	334.720
2026	2027	2028	1	120.000	585.760
2027	2028	2029	1	120.000	527.184
2028	2029	2030	1	120.000	527.184
2029	2030	2031	1	120.000	527.184
2026	2027	2032	1	120.000	585.760
2015	2026	2033	1	111.100	527.184
2026	2033	2034	1	109.500	418.400
2026	2033	2035	1	109.500	418.400
2026	2033	2036	1	109.500	418.400
2010	2011	2037	1	124.000	585.760
2011	2037	2038	1	111.100	527.184
2037	2038	2039	1	112.700	488.273
2037	2038	2040	1	112.700	488.273
2008	2009	2041	1	124.000	585.760
2005	2006	2042	1	120.000	527.184
1986	2003	2043	1	120.000	585.760
1986	1985	2044	1	109.500	292.880
1986	1985	2045	1	109.500	292.880
1986	1985	2046	1	109.500	292.880
1986	1987	2047	1	109.500	292.880
1986	1987	2048	1	109.500	292.880
1987	1988	2049	1	110.700	313.800
1987	1988	2050	1	110.700	313.800
1990	1991	2051	1	120.000	292.880
1991	1992	2052	1	120.000	292.880
1994	1995	2053	1	120.000	292.880
1995	1996	2054	1	120.000	292.880
1997	1998	2055	1	109.5	0.0
1997	1999	2056	1	120.000	292.880
1994	2000	2057	1	120.000	292.880
1993	2001	2058	1	120.000	292.880
1990	2002	2059	1	120.000	292.880
2003	2004	2060	1	120.000	292.880
2004	2005	2061	1	120.000	292.880
2006	2007	2062	1	123.300	292.880
2007	2008	2063	1	120.000	292.880
2009	2010	2064	1	122.260	502.080
2011	2012	2065	1	120.000	292.880
2012	2013	2066	1	120.000	292.880
2013	2014	2067	1	120.000	292.880
2027	2028	2068	1	120.000	292.880
2028	2029	2069	1	120.000	292.880
2029	2030	2070	1	120.000	292.880
2030	2031	2071	1	120.000	292.880
2027	2032	2072	1	120.000	292.880
2011	2037	2073	1	109.500	292.880
2011	2037	2074	1	109.500	292.880
2038	2039	2075	1	110.700	313.800
2038	2039	2076	1	110.700	313.800
2038	2039	2077	1	110.700	313.800
2038	2040	2078	1	110.700	313.800
2038	2040	2079	1	110.700	313.800
2038	2040	2080	1	110.700	313.800
2009	2041	2081	1	109.500	292.880
2009	2041	2082	1	109.500	292.880
2006	2042	2083	1	120.000	292.880
2003	2043	2084	1	120.000	292.880
2002	2001	2058	1	120.000	292.880
2006	2042	2043	1	120.000	527.184
1991	1990	2002	1	120.000	527.184
2038	2037	2074	1	110.700	313.800
2005	2004	2060	1	120.000	292.880
2042	2043	2084	1	120.000	292.880
2003	2043	2042	1	120.000	527.184
2030	2031	2032	1	120.000	527.184
2045	1985	2046	1	107.800	276.144
1998	1997	1999	1	109.5	0.0
2010	2009	2041	1	124.000	585.760
2038	2041	2081	1	110.700	313.800
1996	1995	2053	1	120.000	292.880
2032	2031	2071	1	120.000	292.880
2079	2040	2080	1	107.800	276.144
2021	2020	2023	1	118.760	505.678
1989	1988	2050	1	109.500	292.880
1989	1988	2049	1	109.500	292.880
2040	2038	2041	1	112.700	488.273
2081	2041	2082	1	107.800	276.144
2027	2032	2031	1	120.000	527.184
2017	2016	2019	1	122.000	669.440
2019	2025	2026	1	111.000	627.600
2008	2007	2062	1	120.000	292.880
2001	2002	2059	1	120.000	292.880
1993	2001	2002	1	120.000	527.184
2030	2029	2069	1	120.000	292.880
1994	1993	2001	1	120.000	527.184
2044	1985	2046	1	107.800	276.144
2013	2012	2065	1	120.000	292.880
1994	2000	1999	1	120.000	527.184
2028	2027	2032	1	120.000	527.184
2020	2019	2025	1	120.000	585.760
2000	1999	2056	1	120.000	292.880
2006	2005	2061	1	120.000	292.880
2034	2033	2036	1	109.100	644.336
2025	2026	2033	1	109.500	418.400
2043	2042	2083	1	120.000	292.880
2076	2039	2077	1	107.800	276.144
1990	2002	2001	1	120.000	527.184
1995	1994	2000	1	120.000	527.184
2038	2037	2073	1	110.700	313.800
2027	2026	2033	1	114.000	527.184
2029	2028	2068	1	120.000	292.880
2025	2026	2027	1	109.500	418.400
2031	2032	2072	1	120.000	292.880
2073	2037	2074	1	107.800	276.144
1992	1991	2051	1	120.000	292.880
2075	2039	2077	1	107.800	276.144
1988	1987	2048	1	110.700	313.800
2012	2011	2037	1	124.000	585.760
2034	2033	2035	1	109.100	644.336
1988	1987	2047	1	110.700	313.800
2075	2039	2076	1	107.800	276.144
2007	2006	2042	1	124.000	585.760
2016	2015	2026	1	124.000	585.760
2004	2003	2043	1	120.000	527.184
2039	2038	2040	1	112.700	488.273
1999	2000	2057	1	120.000	292.880
2015	2026	2025	1	109.500	418.400
2037	2038	2041	1	112.700	488.273
2009	2041	2038	1	111.100	527.184
2049	1988	2050	1	107.800	276.144
2035	2033	2036	1	109.100	644.336
2044	1985	2045	1	107.800	276.144
1997	1996	2054	1	120.000	292.880
2014	2013	2066	1	120.000	292.880
2078	2040	2080	1	107.800	276.144
2047	1987	2048	1	107.800	276.144
1987	1986	2003	1	116.000	418.400
2039	2038	2041	1	112.700	488.273
2011	2010	2064	1	122.260	502.080
1993	1992	2052	1	120.000	292.880
2038	2041	2082	1	110.700	313.800
2078	2040	2079	1	107.800	276.144
2009	2008	2063	1	120.000	292.880
2015	2014	2067	1	123.300	292.880
2031	2030	2070	1	120.000	292.880
1997	1999	2000	1	120.000	527.184
2085	2086	2087	1	107.200	433.462
2086	2087	2088	1	109.470	470.282
2087	2088	2089	1	109.500	418.400
2088	2089	2090	1	111.000	627.600
2089	2090	2091	1	120.000	585.760
2090	2091	2092	1	120.000	527.184
2091	2092	2093	1	120.000	527.184
2092	2093	2094	1	120.000	527.184
2093	2094	2095	1	120.000	527.184
2094	2095	2096	1	120.000	527.184
2095	2096	2097	1	120.000	527.184
2096	2097	2098	1	109.5	0.0
2096	2097	2099	1	120.000	527.184
2093	2094	2100	1	120.000	527.184
2092	2093	2101	1	120.000	527.184
2089	2090	2102	1	120.000	585.760
2085	2086	2103	1	116.000	418.400
2086	2103	2104	1	120.000	585.760
2103	2104	2105	1	120.000	527.184
2104	2105	2106	1	120.000	527.184
2105	2106	2107	1	124.000	585.760
2106	2107	2108	1	117.000	711.280
2107	2108	2109	1	124.000	585.760
2108	2109	2110	1	124.000	585.760
2109	2110	2111	1	124.000	585.760
2110	2111	2112	1	124.000	585.760
2111	2112	2113	1	124.000	585.760
2112	2113	2114	1	124.000	585.760
2113	2114	2115	1	117.000	711.280
2114	2115	2116	1	118.760	505.678
2115	2116	2117	1	124.000	585.760
2116	2117	2118	1	180.000	1255.200
2115	2116	2119	1	117.000	711.280
2116	2119	2120	1	124.000	585.760
2119	2120	2121	1	122.000	669.440
2120	2121	2122	1	180.000	1255.200
2119	2120	2123	1	122.000	669.440
2120	2123	2124	1	180.000	1255.200
2116	2119	2125	1	110.000	585.760
2114	2115	2126	1	124.000	585.760
2115	2126	2127	1	109.500	334.720
2126	2127	2128	1	120.000	585.760
2127	2128	2129	1	120.000	527.184
2128	2129	2130	1	120.000	527.184
2129	2130	2131	1	120.000	527.184
2126	2127	2132	1	120.000	585.760
2115	2126	2133	1	111.100	527.184
2126	2133	2134	1	109.500	418.400
2126	2133	2135	1	109.500	418.400
2126	2133	2136	1	109.500	418.400
2110	2111	2137	1	124.000	585.760
2111	2137	2138	1	111.100	527.184
2137	2138	2139	1	112.700	488.273
2137	2138	2140	1	112.700	488.273
2108	2109	2141	1	124.000	585.760
2105	2106	2142	1	120.000	527.184
2086	2103	2143	1	120.000	585.760
2086	2085	2144	1	109.500	292.880
2086	2085	2145	1	109.500	292.880
2086	2085	2146	1	109.500	292.880
2086	2087	2147	1	109.500	292.880
2086	2087	2148	1	109.500	292.880
2087	2088	2149	1	110.700	313.800
2087	2088	2150	1	110.700	313.800
2090	2091	2151	1	120.000	292.880
2091	2092	2152	1	120.000	292.880
2094	2095	2153	1	120.000	292.880
2095	2096	2154	1	120.000	292.880
2097	2098	2155	1	109.5	0.0
2097	2099	2156	1	120.000	292.880
2094	2100	2157	1	120.000	292.880
2093	2101	2158	1	120.000	292.880
2090	2102	2159	1	120.000	292.880
2103	2104	2160	1	120.000	292.880
2104	2105	2161	1	120.000	292.880
2106	2107	2162	1	123.300	292.880
2107	2108	2163	1	120.000	292.880
2109	2110	2164	1	122.260	502.080
2111	2112	2165	1	120.000	292.880
2112	2113	2166	1	120.000	292.880
2113	2114	2167	1	120.000	292.880
2127	2128	2168	1	120.000	292.880
2128	2129	2169	1	120.000	292.880
2129	2130	2170	1	120.000	292.880
2130	2131	2171	1	120.000	292.880
2127	2132	2172	1	120.000	292.880
2111	2137	2173	1	109.500	292.880
2111	2137	2174	1	109.500	292.880
2138	2139	2175	1	110.700	313.800
2138	2139	2176	1	110.700	313.800
2138	2139	2177	1	110.700	313.800
2138	2140	2178	1	110.700	313.800
2138	2140	2179	1	110.700	313.800
2138	2140	2180	1	110.700	313.800
2109	2141	2181	1	109.500	292.880
2109	2141	2182	1	109.500	292.880
2106	2142	2183	1	120.000	292.880
2103	2143	2184	1	120.000	292.880
2102	2101	2158	1	120.000	292.880
2106	2142	2143	1	120.000	527.184
2091	2090	2102	1	120.000	527.184
2138	2137	2174	1	110.700	313.800
2105	2104	2160	1	120.000	292.880
2142	2143	2184	1	120.000	292.880
2103	2143	2142	1	120.000	527.184
2130	2131	2132	1	120.000	527.184
2145	2085	2146	1	107.800	276.144
2098	2097	2099	1	109.5	0.0
2110	2109	2141	1	124.000	585.760
2138	2141	2181	1	110.700	313.800
2096	2095	2153	1	120.000	292.880
2132	2131	2171	1	120.000	292.880
2179	2140	2180	1	107.800	276.144
2121	2120	2123	1	118.760	505.678
2089	2088	2150	1	109.500	292.880
2089	2088	2149	1	109.500	292.880
2140	2138	2141	1	112.700	488.273
2181	2141	2182	1	107.800	276.144
2127	2132	2131	1	120.000	527.184
2117	2116	2119	1	122.000	669.440
2119	2125	2126	1	111.000	627.600
2108	2107	2162	1	120.000	292.880
2101	2102	2159	1	120.000	292.880
2093	2101	2102	1	120.000	527.184
2130	2129	2169	1	120.000	292.880
2094	2093	2101	1	120.000	527.184
2144	2085	2146	1	107.800	276.144
2113	2112	2165	1	120.000	292.880
2094	2100	2099	1	120.000	527.184
2128	2127	2132	1	120.000	527.184
2120	2119	2125	1	120.000	585.760
2100	2099	2156	1	120.000	292.880
2106	2105	2161	1	120.000	292.880
2134	2133	2136	1	109.100	644.336
2125	2126	2133	1	109.500	418.400
2143	2142	2183	1	120.000	292.880
2176	2139	2177	1	107.800	276.144
2090	2102	2101	1	120.000	527.184
2095	2094	2100	1	120.000	527.184
2138	2137	2173	1	110.700	313.800
2127	2126	2133	1	114.000	527.184
2129	2128	2168	1	120.000	292.880
2125	2126	2127	1	109.500	418.400
2131	2132	2172	1	120.000	292.880
2173	2137	2174	1	107.800	276.144
2092	2091	2151	1	120.000	292.880
2175	2139	2177	1	107.800	276.144
2088	2087	2148	1	110.700	313.800
2112	2111	2137	1	124.000	585.760
2134	2133	2135	1	109.100	644.336
2088	2087	2147	1	110.700	313.800
2175	2139	2176	1	107.800	276.144
2107	2106	2142	1	124.000	585.760
2116	2115	2126	1	124.000	585.760
2104	2103	2143	1	120.000	527.184
2139	2138	2140	1	112.700	488.273
2099	2100	2157	1	120.000	292.880
2115	2126	2125	1	109.500	418.400
2137	2138	2141	1	112.700	488.273
2109	2141	2138	1	111.100	527.184
2149	2088	2150	1	107.800	276.144
2135	2133	2136	1	109.100	644.336
2144	2085	2145	1	107.800	276.144
2097	2096	2154	1	120.000	292.880
2114	2113	2166	1	120.000	292.880
2178	2140	2180	1	107.800	276.144
2147	2087	2148	1	107.800	276.144
2087	2086	2103	1	116.000	418.400
2139	2138	2141	1	112.700	488.273
2111	2110	2164	1	122.260	502.080
2093	2092	2152	1	120.000	292.880
2138	2141	2182	1	110.700	313.800
2178	2140	2179	1	107.800	276.144
2109	2108	2163	1	120.000	292.880
2115	2114	2167	1	123.300	292.880
2131	2130	2170	1	120.000	292.880
2097	2099	2100	1	120.000	527.184
2185	2186	2187	1	107.200	433.462
2186	2187	2188	1	109.470	470.282
2187	2188	2189	1	109.500	418.400
2188	2189	2190	1	111.000	627.600
2189	2190	2191	1	120.000	585.760
2190	2191	2192	1	120.000	527.184
2191	2192	2193	1	120.000	527.184
2192	2193	2194	1	120.000	527.184
2193	2194	2195	1	120.000	527.184
2194	2195	2196	1	120.000	527.184
2195	2196	2197	1	120.000	527.184
2196	2197	2198	1	109.5	0.0
2196	2197	2199	1	120.000	527.184
2193	2194	2200	1	120.000	527.184
2192	2193	2201	1	120.000	527.184
2189	2190	2202	1	120.000	585.760
2185	2186	2203	1	116.000	418.400
2186	2203	2204	1	120.000	585.760
2203	2204	2205	1	120.000	527.184
2204	2205	2206	1	120.000	527.184
2205	2206	2207	1	124.000	585.760
2206	2207	2208	1	117.000	711.280
2207	2208	2209	1	124.000	585.760
2208	2209	2210	1	124.000	585.760
2209	2210	2211	1	124.000	585.760
2210	2211	2212	1	124.000	585.760
2211	2212	2213	1	124.000	585.760
2212	2213	2214	1	124.000	585.760
2213	2214	2215	1	117.000	711.280
2214	2215	2216	1	118.760	505.678
2215	2216	2217	1	124.000	585.760
2216	2217	2218	1	180.000	1255.200
2215	2216	2219	1	117.000	711.280
2216	2219	2220	1	124.000	585.760
2219	2220	2221	1	122.000	669.440
2220	2221	2222	1	180.000	1255.200
2219	2220	2223	1	122.000	669.440
2220	2223	2224	1	180.000	1255.200
2216	2219	2225	1	110.000	585.760
2214	2215	2226	1	124.000	585.760
2215	2226	2227	1	109.500	334.720
2226	2227	2228	1	120.000	585.760
2227	2228	2229	1	120.000	527.184
2228	2229	2230	1	120.000	527.184
2229	2230	2231	1	120.000	527.184
2226	2227	2232	1	120.000	585.760
2215	2226	2233	1	111.100	527.184
2226	2233	2234	1	109.500	418.400
2226	2233	2235	1	109.500	418.400
2226	2233	2236	1	109.500	418.400
2210	2211	2237	1	124.000	585.760
2211	2237	2238	1	111.100	527.184
2237	2238	2239	1	112.700	488.273
2237	2238	2240	1	112.700	488.273
2208	2209	2241	1	124.000	585.760
2205	2206	2242	1	120.000	527.184
2186	2203	2243	1	120.000	585.760
2186	2185	2244	1	109.500	292.880
2186	2185	2245	1	109.500	292.880
2186	2185	2246	1	109.500	292.880
2186	2187	2247	1	109.500	292.880
2186	2187	2248	1	109.500	292.880
2187	2188	2249	1	110.700	313.800
2187	2188	2250	1	110.700	313.800
2190	2191	2251	1	120.000	292.880
2191	2192	2252	1	120.000	292.880
2194	2195	2253	1	120.000	292.880
2195	2196	2254	1	120.000	292.880
2197	2198	2255	1	109.5	0.0
2197	2199	2256	1	120.000	292.880
2194	2200	2257	1	120.000	292.880
2193	2201	2258	1	120.000	292.880
2190	2202	2259	1	120.000	292.880
2203	2204	2260	1	120.000	292.880
2204	2205	2261	1	120.000	292.880
2206	2207	2262	1	123.300	292.880
2207	2208	2263	1	120.000	292.880
2209	2210	2264	1	122.260	502.080
2211	2212	2265	1	120.000	292.880
2212	2213	2266	1	120.000	292.880
2213	2214	2267	1	120.000	292.880
2227	2228	2268	1	120.000	292.880
2228	2229	2269	1	120.000	292.880
2229	2230	2270	1	120.000	292.880
2230	2231	2271	1	120.000	292.880
2227	2232	2272	1	120.000	292.880
2211	2237	2273	1	109.500	292.880
2211	2237	2274	1	109.500	292.880
2238	2239	2275	1	110.700	313.800
2238	2239	2276	1	110.700	313.800
2238	2239	2277	1	110.700	313.800
2238	2240	2278	1	110.700	313.800
2238	2240	2279	1	110.700	313.800
2238	2240	2280	1	110.700	313.800
2209	2241	2281	1	109.500	292.880
2209	2241	2282	1	109.500	292.880
2206	2242	2283	1	120.000	292.880
2203	2243	2284	1	120.000	292.880
2202	2201	2258	1	120.000	292.880
2206	2242	2243	1	120.000	527.184
2191	2190	2202	1	120.000	527.184
2238	2237	2274	1	110.700	313.800
2205	2204	2260	1	120.000	292.880
2242	2243	2284	1	120.000	292.880
2203	2243	2242	1	120.000	527.184
2230	2231	2232	1	120.000	527.184
2245	2185	2246	1	107.800	276.144
2198	2197	2199	1	109.5	0.0
2210	2209	2241	1	124.000	585.760
2238	2241	2281	1	110.700	313.800
2196	2195	2253	1	120.000	292.880
2232	2231	2271	1	120.000	292.880
2279	2240	2280	1	107.800	276.144
2221	2220	2223	1	118.760	505.678
2189	2188	2250	1	109.500	292.880
2189	2188	2249	1	109.500	292.880
2240	2238	2241	1	112.700	488.273
2281	2241	2282	1	107.800	276.144
2227	2232	2231	1	120.000	527.184
2217	2216	2219	1	122.000	669.440
2219	2225	2226	1	111.000	627.600
2208	2207	2262	1	120.000	292.880
2201	2202	2259	1	120.000	292.880
2193	2201	2202	1	120.000	527.184
2230	2229	2269	1	120.000	292.880
2194	2193	2201	1	120.000	527.184
2244	2185	2246	1	107.800	276.144
2213	2212	2265	1	120.000	292.880
2194	2200	2199	1	120.000	527.184
2228	2227	2232	1	120.000	527.184
2220	2219	2225	1	120.000	585.760
2200	2199	2256	1	120.000	292.880
2206	2205	2261	1	120.000	292.880
2234	2233	2236	1	109.100	644.336
2225	2226	2233	1	109.500	418.400
2243	2242	2283	1	120.000	292.880
2276	2239	2277	1	107.800	276.144
2190	2202	2201	1	120.000	527.184
2195	2194	2200	1	120.000	527.184
2238	2237	2273	1	110.700	313.800
2227	2226	2233	1	114.000	527.184
2229	2228	2268	1	120.000	292.880
2225	2226	2227	1	109.500	418.400
2231	2232	2272	1	120.000	292.880
2273	2237	2274	1	107.800	276.144
2192	2191	2251	1	120.000	292.880
2275	2239	2277	1	107.800	276.144
2188	2187	2248	1	110.700	313.800
2212	2211	2237	1	124.000	585.760
2234	2233	2235	1	109.100	644.336
2188	2187	2247	1	110.700	313.800
2275	2239	2276	1	107.800	276.144
2207	2206	2242	1	124.000	585.760
2216	2215	2226	1	124.000	585.760
2204	2203	2243	1	120.000	527.184
2239	2238	2240	1	112.700	488.273
2199	2200	2257	1	120.000	292.880
2215	2226	2225	1	109.500	418.400
2237	2238	2241	1	112.700	488.273
2209	2241	2238	1	111.100	527.184
2249	2188	2250	1	107.800	276.144
2235	2233	2236	1	109.100	644.336
2244	2185	2245	1	107.800	276.144
2197	2196	2254	1	120.000	292.880
2214	2213	2266	1	120.000	292.880
2278	2240	2280	1	107.800	276.144
2247	2187	2248	1	107.800	276.144
2187	2186	2203	1	116.000	418.400
2239	2238	2241	1	112.700	488.273
2211	2210	2264	1	122.260	502.080
2193	2192	2252	1	120.000	292.880
2238	2241	2282	1	110.700	313.800
2278	2240	2279	1	107.800	276.144
2209	2208	2263	1	120.000	292.880
2215	2214	2267	1	123.300	292.880
2231	2230	2270	1	120.000	292.880
2197	2199	2200	1	120.000	527.184
2285	2286	2287	1	107.200	433.462
2286	2287	2288	1	109.470	470.282
2287	2288	2289	1	109.500	418.400
2288	2289	2290	1	111.000	627.600
2289	2290	2291	1	120.000	585.760
2290	2291	2292	1	120.000	527.184
2291	2292	2293	1	120.000	527.184
2292	2293	2294	1	120.000	527.184
2293	2294	2295	1	120.000	527.184
2294	2295	2296	1	120.000	527.184
2295	2296	2297	1	120.000	527.184
2296	2297	2298	1	109.5	0.0
2296	2297	2299	1	120.000	527.184
2293	2294	2300	1	120.000	527.184
2292	2293	2301	1	120.000	527.184
2289	2290	2302	1	120.000	585.760
2285	2286	2303	1	116.000	418.400
2286	2303	2304	1	120.000	585.760
2303	2304	2305	1	120.000	527.184
2304	2305	2306	1	120.000	527.184
2305	2306	2307	1	124.000	585.760
2306	2307	2308	1	117.000	711.280
2307	2308	2309	1	124.000	585.760
2308	2309	2310	1	124.000	585.760
2309	2310	2311	1	124.000	585.760
2310	2311	2312	1	124.000	585.760
2311	2312	2313	1	124.000	585.760
2312	2313	2314	1	124.000	585.760
2313	2314	2315	1	117.000	711.280
2314	2315	2316	1	118.760	505.678
2315	2316	2317	1	124.000	585.760
2316	2317	2318	1	180.000	1255.200
2315	2316	2319	1	117.000	711.280
2316	2319	2320	1	124.000	585.760
2319	2320	2321	1	122.000	669.440
2320	2321	2322	1	180.000	1255.200
2319	2320	2323	1	122.000	669.440
2320	2323	2324	1	180.000	1255.200
2316	2319	2325	1	110.000	585.760
2314	2315	2326	1	124.000	585.760
2315	2326	2327	1	109.500	334.720
2326	2327	2328	1	120.000	585.760
2327	2328	2329	1	120.000	527.184
2328	2329	2330	1	120.000	527.184
2329	2330	2331	1	120.000	527.184
2326	2327	2332	1	120.000	585.760
2315	2326	2333	1	111.100	527.184
2326	2333	2334	1	109.500	418.400
2326	2333	2335	1	109.500	418.400
2326	2333	2336	1	109.500	418.400
2310	2311	2337	1	124.000	585.760
2311	2337	2338	1	111.100	527.184
2337	2338	2339	1	112.700	488.273
2337	2338	2340	1	112.700	488.273
2308	2309	2341	1	124.000	585.760
2305	2306	2342	1	120.000	527.184
2286	2303	2343	1	120.000	585.760
2286	2285	2344	1	109.500	292.880
2286	2285	2345	1	109.500	292.880
2286	2285	2346	1	109.500	292.880
2286	2287	2347	1	109.500	292.880
2286	2287	2348	1	109.500	292.880
2287	2288	2349	1	110.700	313.800
2287	2288	2350	1	110.700	313.800
2290	2291	2351	1	120.000	292.880
2291	2292	2352	1	120.000	292.880
2294	2295	2353	1	120.000	292.880
2295	2296	2354	1	120.000	292.880
2297	2298	2355	1	109.5	0.0
2297	2299	2356	1	120.000	292.880
2294	2300	2357	1	120.000	292.880
2293	2301	2358	1	120.000	292.880
2290	2302	2359	1	120.000	292.880
2303	2304	2360	1	120.000	292.880
2304	2305	2361	1	120.000	292.880
2306	2307	2362	1	123.300	292.880
2307	2308	2363	1	120.000	292.880
2309	2310	2364	1	122.260	502.080
2311	2312	2365	1	120.000	292.880
2312	2313	2366	1	120.000	292.880
2313	2314	2367	1	120.000	292.880
2327	2328	2368	1	120.000	292.880
2328	2329	2369	1	120.000	292.880
2329	2330	2370	1	120.000	292.880
2330	2331	2371	1	120.000	292.880
2327	2332	2372	1	120.000	292.880
2311	2337	2373	1	109.500	292.880
2311	2337	2374	1	109.500	292.880
2338	2339	2375	1	110.700	313.800
2338	2339	2376	1	110.700	313.800
2338	2339	2377	1	110.700	313.800
2338	2340	2378	1	110.700	313.800
2338	2340	2379	1	110.700	313.800
2338	2340	2380	1	110.700	313.800
2309	2341	2381	1	109.500	292.880
2309	2341	2382	1	109.500	292.880
2306	2342	2383	1	120.000	292.880
2303	2343	2384	1	120.000	292.880
2302	2301	2358	1	120.000	292.880
2306	2342	2343	1	120.000	527.184
2291	2290	2302	1	120.000	527.184
2338	2337	2374	1	110.700	313.800
2305	2304	2360	1	120.000	292.880
2342	2343	2384	1	120.000	292.880
2303	2343	2342	1	120.000	527.184
2330	2331	2332	1	120.000	527.184
2345	2285	2346	1	107.800	276.144
2298	2297	2299	1	109.5	0.0
2310	2309	2341	1	124.000	585.760
2338	2341	2381	1	110.700	313.800
2296	2295	2353	1	120.000	292.880
2332	2331	2371	1	120.000	292.880
2379	2340	2380	1	107.800	276.144
2321	2320	2323	1	118.760	505.678
2289	2288	2350	1	109.500	292.880
2289	2288	2349	1	109.500	292.880
2340	2338	2341	1	112.700	488.273
2381	2341	2382	1	107.800	276.144
2327	2332	2331	1	120.000	527.184
2317	2316	2319	1	122.000	669.440
2319	2325	2326	1	111.000	627.600
2308	2307	2362	1	120.000	292.880
2301	2302	2359	1	120.000	292.880
2293	2301	2302	1	120.000	527.184
2330	2329	2369	1	120.000	292.880
2294	2293	2301	1	120.000	527.184
2344	2285	2346	1	107.800	276.144
2313	2312	2365	1	120.000	292.880
2294	2300	2299	1	120.000	527.184
2328	2327	2332	1	120.000	527.184
2320	2319	2325	1	120.000	585.760
2300	2299	2356	1	120.000	292.880
2306	2305	2361	1	120.000	292.880
2334	2333	2336	1	109.100	644.336
2325	2326	2333	1	109.500	418.400
2343	2342	2383	1	120.000	292.880
2376	2339	2377	1	107.800	276.144
2290	2302	2301	1	120.000	527.184
2295	2294	2300	1	120.000	527.184
2338	2337	2373	1	110.700	313.800
2327	2326	2333	1	114.000	527.184
2329	2328	2368	1	120.000	292.880
2325	2326	2327	1	109.500	418.400
2331	2332	2372	1	120.000	292.880
2373	2337	2374	1	107.800	276.144
2292	2291	2351	1	120.000	292.880
2375	2339	2377	1	107.800	276.144
2288	2287	2348	1	110.700	313.800
2312	2311	2337	1	124.000	585.760
2334	2333	2335	1	109.100	644.336
2288	2287	2347	1	110.700	313.800
2375	2339	2376	1	107.800	276.144
2307	2306	2342	1	124.000	585.760
2316	2315	2326	1	124.000	585.760
2304	2303	2343	1	120.000	527.184
2339	2338	2340	1	112.700	488.273
2299	2300	2357	1	120.000	292.880
2315	2326	2325	1	109.500	418.400
2337	2338	2341	1	112.700	488.273
2309	2341	2338	1	111.100	527.184
2349	2288	2350	1	107.800	276.144
2335	2333	2336	1	109.100	644.336
2344	2285	2345	1	107.800	276.144
2297	2296	2354	1	120.000	292.880
2314	2313	2366	1	120.000	292.880
2378	2340	2380	1	107.800	276.144
2347	2287	2348	1	107.800	276.144
2287	2286	2303	1	116.000	418.400
2339	2338	2341	1	112.700	488.273
2311	2310	2364	1	122.260	502.080
2293	2292	2352	1	120.000	292.880
2338	2341	2382	1	110.700	313.800
2378	2340	2379	1	107.800	276.144
2309	2308	2363	1	120.000	292.880
2315	2314	2367	1	123.300	292.880
2331	2330	2370	1	120.000	292.880
2297	2299	2300	1	120.000	527.184
2385	2386	2387	1	107.200	433.462
2386	2387	2388	1	109.470	470.282
2387	2388	2389	1	109.500	418.400
2388	2389	2390	1	111.000	627.600
2389	2390	2391	1	120.000	585.760
2390	2391	2392	1	120.000	527.184
2391	2392	2393	1	120.000	527.184
2392	2393	2394	1	120.000	527.184
2393	2394	2395	1	120.000	527.184
2394	2395	2396	1	120.000	527.184
2395	2396	2397	1	120.000	527.184
2396	2397	2398	1	109.5	0.0
2396	2397	2399	1	120.000	527.184
2393	2394	2400	1	120.000	527.184
2392	2393	2401	1	120.000	527.184
2389	2390	2402	1	120.000	585.760
2385	2386	2403	1	116.000	418.400
2386	2403	2404	1	120.000	585.760
2403	2404	2405	1	120.000	527.184
2404	2405	2406	1	120.000	527.184
2405	2406	2407	1	124.000	585.760
2406	2407	2408	1	117.000	711.280
2407	2408	2409	1	124.000	585.760
2408	2409	2410	1	124.000	585.760
2409	2410	2411	1	124.000	585.760
2410	2411	2412	1	124.000	585.760
2411	2412	2413	1	124.000	585.760
2412	2413	2414	1	124.000	585.760
2413	2414	2415	1	117.000	711.280
2414	2415	2416	1	118.760	505.678
2415	2416	2417	1	124.000	585.760
2416	2417	2418	1	180.000	1255.200
2415	2416	2419	1	117.000	711.280
2416	2419	2420	1	124.000	585.760
2419	2420	2421	1	122.000	669.440
2420	2421	2422	1	180.000	1255.200
2419	2420	2423	1	122.000	669.440
2420	2423	2424	1	180.000	1255.200
2416	2419	2425	1	110.000	585.760
2414	2415	2426	1	124.000	585.760
2415	2426	2427	1	109.500	334.720
2426	2427	2428	1	120.000	585.760
2427	2428	2429	1	120.000	527.184
2428	2429	2430	1	120.000	527.184
2429	2430	2431	1	120.000	527.184
2426	2427	2432	1	120.000	585.760
2415	2426	2433	1	111.100	527.184
2426	2433	2434	1	109.500	418.400
2426	2433	2435	1	109.500	418.400
2426	2433	2436	1	109.500	418.400
2410	2411	2437	1	124.000	585.760
2411	2437	2438	1	111.100	527.184
2437	2438	2439	1	112.700	488.273
2437	2438	2440	1	112.700	488.273
2408	2409	2441	1	124.000	585.760
2405	2406	2442	1	120.000	527.184
2386	2403	2443	1	120.000	585.760
2386	2385	2444	1	109.500	292.880
2386	2385	2445	1	109.500	292.880
2386	2385	2446	1	109.500	292.880
2386	2387	2447	1	109.500	292.880
2386	2387	2448	1	109.500	292.880
2387	2388	2449	1	110.700	313.800
2387	2388	2450	1	110.700	313.800
2390	2391	2451	1	120.000	292.880
2391	2392	2452	1	120.000	292.880
2394	2395	2453	1	120.000	292.880
2395	2396	2454	1	120.000	292.880
2397	2398	2455	1	109.5	0.0
2397	2399	2456	1	120.000	292.880
2394	2400	2457	1	120.000	292.880
2393	2401	2458	1	120.000	292.880
2390	2402	2459	1	120.000	292.880
2403	2404	2460	1	120.000	292.880
2404	2405	2461	1	120.000	292.880
2406	2407	2462	1	123.300	292.880
2407	2408	2463	1	120.000	292.880
2409	2410	2464	1	122.260	502.080
2411	2412	2465	1	120.000	292.880
2412	2413	2466	1	120.000	292.880
2413	2414	2467	1	120.000	292.880
2427	2428	2468	1	120.000	292.880
2428	2429	2469	1	120.000	292.880
2429	2430	2470	1	120.000	292.880
2430	2431	2471	1	120.000	292.880
2427	2432	2472	1	120.000	292.880
2411	2437	2473	1	109.500	292.880
2411	2437	2474	1	109.500	292.880
2438	2439	2475	1	110.700	313.800
2438	2439	2476	1	110.700	313.800
2438	2439	2477	1	110.700	313.800
2438	2440	2478	1	110.700	313.800
2438	2440	2479	1	110.700	313.800
2438	2440	2480	1	110.700	313.800
2409	2441	2481	1	109.500	292.880
2409	2441	2482	1	109.500	292.880
2406	2442	2483	1	120.000	292.880
2403	2443	2484	1	120.000	292.880
2402	2401	2458	1	120.000	292.880
2406	2442	2443	1	120.000	527.184
2391	2390	2402	1	120.000	527.184
2438	2437	2474	1	110.700	313.800
2405	2404	2460	1	120.000	292.880
2442	2443	2484	1	120.000	292.880
2403	2443	2442	1	120.000	527.184
2430	2431	2432	1	120.000	527.184
2445	2385	2446	1	107.800	276.144
2398	2397	2399	1	109.5	0.0
2410	2409	2441	1	124.000	585.760
2438	2441	2481	1	110.700	313.800
2396	2395	2453	1	120.000	292.880
2432	2431	2471	1	120.000	292.880
2479	2440	2480	1	107.800	276.144
2421	2420	2423	1	118.760	505.678
2389	2388	2450	1	109.500	292.880
2389	2388	2449	1	109.500	292.880
2440	2438	2441	1	112.700	488.273
2481	2441	2482	1	107.800	276.144
2427	2432	2431	1	120.000	527.184
2417	2416	2419	1	122.000	669.440
2419	2425	2426	1	111.000	627.600
2408	2407	2462	1	120.000	292.880
2401	2402	2459	1	120.000	292.880
2393	2401	2402	1	120.000	527.184
2430	2429	2469	1	120.000	292.880
2394	2393	2401	1	120.000	527.184
2444	2385	2446	1	107.800	276.144
2413	2412	2465	1	120.000	292.880
2394	2400	2399	1	120.000	527.184
2428	2427	2432	1	120.000	527.184
2420	2419	2425	1	120.000	585.760
2400	2399	2456	1	120.000	292.880
2406	2405	2461	1	120.000	292.880
2434	2433	2436	1	109.100	644.336
2425	2426	2433	1	109.500	418.400
2443	2442	2483	1	120.000	292.880
2476	2439	2477	1	107.800	276.144
2390	2402	2401	1	120.000	527.184
2395	2394	2400	1	120.000	527.184
2438	2437	2473	1	110.700	313.800
2427	2426	2433	1	114.000	527.184
2429	2428	2468	1	120.000	292.880
2425	2426	2427	1	109.500	418.400
2431	2432	2472	1	120.000	292.880
2473	2437	2474	1	107.800	276.144
2392	2391	2451	1	120.000	292.880
2475	2439	2477	1	107.800	276.144
2388	2387	2448	1	110.700	313.800
2412	2411	2437	1	124.000	585.760
2434	2433	2435	1	109.100	644.336
2388	2387	2447	1	110.700	313.800
2475	2439	2476	1	107.800	276.144
2407	2406	2442	1	124.000	585.760
2416	2415	2426	1	124.000	585.760
2404	2403	2443	1	120.000	527.184
2439	2438	2440	1	112.700	488.273
2399	2400	2457	1	120.000	292.880
2415	2426	2425	1	109.500	418.400
2437	2438	2441	1	112.700	488.273
2409	2441	2438	1	111.100	527.184
2449	2388	2450	1	107.800	276.144
2435	2433	2436	1	109.100	644.336
2444	2385	2445	1	107.800	276.144
2397	2396	2454	1	120.000	292.880
2414	2413	2466	1	120.000	292.880
2478	2440	2480	1	107.800	276.144
2447	2387	2448	1	107.800	276.144
2387	2386	2403	1	116.000	418.400
2439	2438	2441	1	112.700	488.273
2411	2410	2464	1	122.260	502.080
2393	2392	2452	1	120.000	292.880
2438	2441	2482	1	110.700	313.800
2478	2440	2479	1	107.800	276.144
2409	2408	2463	1	120.000	292.880
2415	2414	2467	1	123.300	292.880
2431	2430	2470	1	120.000	292.880
2397	2399	2400	1	120.000	527.184
2485	2486	2487	1	107.200	433.462
2486	2487	2488	1	109.470	470.282
2487	2488	2489	1	109.500	418.400
2488	2489	2490	1	111.000	627.600
2489	2490	2491	1	120.000	585.760
2490	2491	2492	1	120.000	527.184
2491	2492	2493	1	120.000	527.184
2492	2493	2494	1	120.000	527.184
2493	2494	2495	1	120.000	527.184
2494	2495	2496	1	120.000	527.184
2495	2496	2497	1	120.000	527.184
2496	2497	2498	1	109.5	0.0
2496	2497	2499	1	120.000	527.184
2493	2494	2500	1	120.000	527.184
2492	2493	2501	1	120.000	527.184
2489	2490	2502	1	120.000	585.760
2485	2486	2503	1	116.000	418.400
2486	2503	2504	1	120.000	585.760
2503	2504	2505	1	120.000	527.184
2504	2505	2506	1	120.000	527.184
2505	2506	2507	1	124.000	585.760
2506	2507	2508	1	117.000	711.280
2507	2508	2509	1	124.000	585.760
2508	2509	2510	1	124.000	585.760
2509	2510	2511	1	124.000	585.760
2510	2511	2512	1	124.000	585.760
2511	2512	2513	1	124.000	585.760
2512	2513	2514	1	124.000	585.760
2513	2514	2515	1	117.000	711.280
2514	2515	2516	1	118.760	505.678
2515	2516	2517	1	124.000	585.760
2516	2517	2518	1	180.000	1255.200
2515	2516	2519	1	117.000	711.280
2516	2519	2520	1	124.000	585.760
2519	2520	2521	1	122.000	669.440
2520	2521	2522	1	180.000	1255.200
2519	2520	2523	1	122.000	669.440
2520	2523	2524	1	180.000	1255.200
2516	2519	2525	1	110.000	585.760
2514	2515	2526	1	124.000	585.760
2515	2526	2527	1	109.500	334.720
2526	2527	2528	1	120.000	585.760
2527	2528	2529	1	120.000	527.184
2528	2529	2530	1	120.000	527.184
2529	2530	2531	1	120.000	527.184
2526	2527	2532	1	120.000	585.760
2515	2526	2533	1	111.100	527.184
2526	2533	2534	1	109.500	418.400
2526	2533	2535	1	109.500	418.400
2526	2533	2536	1	109.500	418.400
2510	2511	2537	1	124.000	585.760
2511	2537	2538	1	111.100	527.184
2537	2538	2539	1	112.700	488.273
2537	2538	2540	1	112.700	488.273
2508	2509	2541	1	124.000	585.760
2505	2506	2542	1	120.000	527.184
2486	2503	2543	1	120.000	585.760
2486	2485	2544	1	109.500	292.880
2486	2485	2545	1	109.500	292.880
2486	2485	2546	1	109.500	292.880
2486	2487	2547	1	109.500	292.880
2486	2487	2548	1	109.500	292.880
2487	2488	2549	1	110.700	313.800
2487	2488	2550	1	110.700	313.800
2490	2491	2551	1	120.000	292.880
2491	2492	2552	1	120.000	292.880
2494	2495	2553	1	120.000	292.880
2495	2496	2554	1	120.000	292.880
2497	2498	2555	1	109.5	0.0
2497	2499	2556	1	120.000	292.880
2494	2500	2557	1	120.000	292.880
2493	2501	2558	1	120.000	292.880
2490	2502	2559	1	120.000	292.880
2503	2504	2560	1	120.000	292.880
2504	2505	2561	1	120.000	292.880
2506	2507	2562	1	123.300	292.880
2507	2508	2563	1	120.000	292.880
2509	2510	2564	1	122.260	502.080
2511	2512	2565	1	120.000	292.880
2512	2513	2566	1	120.000	292.880
2513	2514	2567	1	120.000	292.880
2527	2528	2568	1	120.000	292.880
2528	2529	2569	1	120.000	292.880
2529	2530	2570	1	120.000	292.880
2530	2531	2571	1	120.000	292.880
2527	2532	2572	1	120.000	292.880
2511	2537	2573	1	109.500	292.880
2511	2537	2574	1	109.500	292.880
2538	2539	2575	1	110.700	313.800
2538	2539	2576	1	110.700	313.800
2538	2539	2577	1	110.700	313.800
2538	2540	2578	1	110.700	313.800
2538	2540	2579	1	110.700	313.800
2538	2540	2580	1	110.700	313.800
2509	2541	2581	1	109.500	292.880
2509	2541	2582	1	109.500	292.880
2506	2542	2583	1	120.000	292.880
2503	2543	2584	1	120.000	292.880
2502	2501	2558	1	120.000	292.880
2506	2542	2543	1	120.000	527.184
2491	2490	2502	1	120.000	527.184
2538	2537	2574	1	110.700	313.800
2505	2504	2560	1	120.000	292.880
2542	2543	2584	1	120.000	292.880
2503	2543	2542	1	120.000	527.184
2530	2531	2532	1	120.000	527.184
2545	2485	2546	1	107.800	276.144
2498	2497	2499	1	109.5	0.0
2510	2509	2541	1	124.000	585.760
2538	2541	2581	1	110.700	313.800
2496	2495	2553	1	120.000	292.880
2532	2531	2571	1	120.000	292.880
2579	2540	2580	1	107.800	276.144
2521	2520	2523	1	118.760	505.678
2489	2488	2550	1	109.500	292.880
2489	2488	2549	1	109.500	292.880
2540	2538	2541	1	112.700	488.273
2581	2541	2582	1	107.800	276.144
2527	2532	2531	1	120.000	527.184
2517	2516	2519	1	122.000	669.440
2519	2525	2526	1	111.000	627.600
2508	2507	2562	1	120.000	292.880
2501	2502	2559	1	120.000	292.880
2493	2501	2502	1	120.000	527.184
2530	2529	2569	1	120.000	292.880
2494	2493	2501	1	120.000	527.184
2544	2485	2546	1	107.800	276.144
2513	2512	2565	1	120.000	292.880
2494	2500	2499	1	120.000	527.184
2528	2527	2532	1	120.000	527.184
2520	2519	2525	1	120.000	585.760
2500	2499	2556	1	120.000	292.880
2506	2505	2561	1	120.000	292.880
2534	2533	2536	1	109.100	644.336
2525	2526	2533	1	109.500	418.400
2543	2542	2583	1	120.000	292.880
2576	2539	2577	1	107.800	276.144
2490	2502	2501	1	120.000	527.184
2495	2494	2500	1	120.000	527.184
2538	2537	2573	1	110.700	313.800
2527	2526	2533	1	114.000	527.184
2529	2528	2568	1	120.000	292.880
2525	2526	2527	1	109.500	418.400
2531	2532	2572	1	120.000	292.880
2573	2537	2574	1	107.800	276.144
2492	2491	2551	1	120.000	292.880
2575	2539	2577	1	107.800	276.144
2488	2487	2548	1	110.700	313.800
2512	2511	2537	1	124.000	585.760
2534	2533	2535	1	109.100	644.336
2488	2487	2547	1	110.700	313.800
2575	2539	2576	1	107.800	276.144
2507	2506	2542	1	124.000	585.760
2516	2515	2526	1	124.000	585.760
2504	2503	2543	1	120.000	527.184
2539	2538	2540	1	112.700	488.273
2499	2500	2557	1	120.000	292.880
2515	2526	2525	1	109.500	418.400
2537	2538	2541	1	112.700	488.273
2509	2541	2538	1	111.100	527.184
2549	2488	2550	1	107.800	276.144
2535	2533	2536	1	109.100	644.336
2544	2485	2545	1	107.800	276.144
2497	2496	2554	1	120.000	292.880
2514	2513	2566	1	120.000	292.880
2578	2540	2580	1	107.800	276.144
2547	2487	2548	1	107.800	276.144
2487	2486	2503	1	116.000	418.400
2539	2538	2541	1	112.700	488.273
2511	2510	2564	1	122.260	502.080
2493	2492	2552	1	120.000	292.880
2538	2541	2582	1	110.700	313.800
2578	2540	2579	1	107.800	276.144
2509	2508	2563	1	120.000	292.880
2515	2514	2567	1	123.300	292.880
2531	2530	2570	1	120.000	292.880
2497	2499	2500	1	120.000	527.184
2585	2586	2587	1	107.200	433.462
2586	2587	2588	1	109.470	470.282
2587	2588	2589	1	109.500	418.400
2588	2589	2590	1	111.000	627.600
2589	2590	2591	1	120.000	585.760
2590	2591	2592	1	120.000	527.184
2591	2592	2593	1	120.000	527.184
2592	2593	2594	1	120.000	527.184
2593	2594	2595	1	120.000	527.184
2594	2595	2596	1	120.000	527.184
2595	2596	2597	1	120.000	527.184
2596	2597	2598	1	109.5	0.0
2596	2597	2599	1	120.000	527.184
2593	2594	2600	1	120.000	527.184
2592	2593	2601	1	120.000	527.184
2589	2590	2602	1	120.000	585.760
2585	2586	2603	1	116.000	418.400
2586	2603	2604	1	120.000	585.760
2603	2604	2605	1	120.000	527.184
2604	2605	2606	1	120.000	527.184
2605	2606	2607	1	124.000	585.760
2606	2607	2608	1	117.000	711.280
2607	2608	2609	1	124.000	585.760
2608	2609	2610	1	124.000	585.760
2609	2610	2611	1	124.000	585.760
2610	2611	2612	1	124.000	585.760
2611	2612	2613	1	124.000	585.760
2612	2613	2614	1	124.000	585.760
2613	2614	2615	1	117.000	711.280
2614	2615	2616	1	118.760	505.678
2615	2616	2617	1	124.000	585.760
2616	2617	2618	1	180.000	1255.200
2615	2616	2619	1	117.000	711.280
2616	2619	2620	1	124.000	585.760
2619	2620	2621	1	122.000	669.440
2620	2621	2622	1	180.000	1255.200
2619	2620	2623	1	122.000	669.440
2620	2623	2624	1	180.000	1255.200
2616	2619	2625	1	110.000	585.760
2614	2615	2626	1	124.000	585.760
2615	2626	2627	1	109.500	334.720
2626	2627	2628	1	120.000	585.760
2627	2628	2629	1	120.000	527.184
2628	2629	2630	1	120.000	527.184
2629	2630	2631	1	120.000	527.184
2626	2627	2632	1	120.000	585.760
2615	2626	2633	1	111.100	527.184
2626	2633	2634	1	109.500	418.400
2626	2633	2635	1	109.500	418.400
2626	2633	2636	1	109.500	418.400
2610	2611	2637	1	124.000	585.760
2611	2637	2638	1	111.100	527.184
2637	2638	2639	1	112.700	488.273
2637	2638	2640	1	112.700	488.273
2608	2609	2641	1	124.000	585.760
2605	2606	2642	1	120.000	527.184
2586	2603	2643	1	120.000	585.760
2586	2585	2644	1	109.500	292.880
2586	2585	2645	1	109.500	292.880
2586	2585	2646	1	109.500	292.880
2586	2587	2647	1	109.500	292.880
2586	2587	2648	1	109.500	292.880
2587	2588	2649	1	110.700	313.800
2587	2588	2650	1	110.700	313.800
2590	2591	2651	1	120.000	292.880
2591	2592	2652	1	120.000	292.880
2594	2595	2653	1	120.000	292.880
2595	2596	2654	1	120.000	292.880
2597	2598	2655	1	109.5	0.0
2597	2599	2656	1	120.000	292.880
2594	2600	2657	1	120.000	292.880
2593	2601	2658	1	120.000	292.880
2590	2602	2659	1	120.000	292.880
2603	2604	2660	1	120.000	292.880
2604	2605	2661	1	120.000	292.880
2606	2607	2662	1	123.300	292.880
2607	2608	2663	1	120.000	292.880
2609	2610	2664	1	122.260	502.080
2611	2612	2665	1	120.000	292.880
2612	2613	2666	1	120.000	292.880
2613	2614	2667	1	120.000	292.880
2627	2628	2668	1	120.000	292.880
2628	2629	2669	1	120.000	292.880
2629	2630	2670	1	120.000	292.880
2630	2631	2671	1	120.000	292.880
2627	2632	2672	1	120.000	292.880
2611	2637	2673	1	109.500	292.880
2611	2637	2674	1	109.500	292.880
2638	2639	2675	1	110.700	313.800
2638	2639	2676	1	110.700	313.800
2638	2639	2677	1	110.700	313.800
2638	2640	2678	1	110.700	313.800
2638	2640	2679	1	110.700	313.800
2638	2640	2680	1	110.700	313.800
2609	2641	2681	1	109.500	292.880
2609	2641	2682	1	109.500	292.880
2606	2642	2683	1	120.000	292.880
2603	2643	2684	1	120.000	292.880
2602	2601	2658	1	120.000	292.880
2606	2642	2643	1	120.000	527.184
2591	2590	2602	1	120.000	527.184
2638	2637	2674	1	110.700	313.800
2605	2604	2660	1	120.000	292.880
2642	2643	2684	1	120.000	292.880
2603	2643	2642	1	120.000	527.184
2630	2631	2632	1	120.000	527.184
2645	2585	2646	1	107.800	276.144
2598	2597	2599	1	109.5	0.0
2610	2609	2641	1	124.000	585.760
2638	2641	2681	1	110.700	313.800
2596	2595	2653	1	120.000	292.880
2632	2631	2671	1	120.000	292.880
2679	2640	2680	1	107.800	276.144
2621	2620	2623	1	118.760	505.678
2589	2588	2650	1	109.500	292.880
2589	2588	2649	1	109.500	292.880
2640	2638	2641	1	112.700	488.273
2681	2641	2682	1	107.800	276.144
2627	2632	2631	1	120.000	527.184
2617	2616	2619	1	122.000	669.440
2619	2625	2626	1	111.000	627.600
2608	2607	2662	1	120.000	292.880
2601	2602	2659	1	120.000	292.880
2593	2601	2602	1	120.000	527.184
2630	2629	2669	1	120.000	292.880
2594	2593	2601	1	120.000	527.184
2644	2585	2646	1	107.800	276.144
2613	2612	2665	1	120.000	292.880
2594	2600	2599	1	120.000	527.184
2628	2627	2632	1	120.000	527.184
2620	2619	2625	1	120.000	585.760
2600	2599	2656	1	120.000	292.880
2606	2605	2661	1	120.000	292.880
2634	2633	2636	1	109.100	644.336
2625	2626	2633	1	109.500	418.400
2643	2642	2683	1	120.000	292.880
2676	2639	2677	1	107.800	276.144
2590	2602	2601	1	120.000	527.184
2595	2594	2600	1	120.000	527.184
2638	2637	2673	1	110.700	313.800
2627	2626	2633	1	114.000	527.184
2629	2628	2668	1	120.000	292.880
2625	2626	2627	1	109.500	418.400
2631	2632	2672	1	120.000	292.880
2673	2637	2674	1	107.800	276.144
2592	2591	2651	1	120.000	292.880
2675	2639	2677	1	107.800	276.144
2588	2587	2648	1	110.700	313.800
2612	2611	2637	1	124.000	585.760
2634	2633	2635	1	109.100	644.336
2588	2587	2647	1	110.700	313.800
2675	2639	2676	1	107.800	276.144
2607	2606	2642	1	124.000	585.760
2616	2615	2626	1	124.000	585.760
2604	2603	2643	1	120.000	527.184
2639	2638	2640	1	112.700	488.273
2599	2600	2657	1	120.000	292.880
2615	2626	2625	1	109.500	418.400
2637	2638	2641	1	112.700	488.273
2609	2641	2638	1	111.100	527.184
2649	2588	2650	1	107.800	276.144
2635	2633	2636	1	109.100	644.336
2644	2585	2645	1	107.800	276.144
2597	2596	2654	1	120.000	292.880
2614	2613	2666	1	120.000	292.880
2678	2640	2680	1	107.800	276.144
2647	2587	2648	1	107.800	276.144
2587	2586	2603	1	116.000	418.400
2639	2638	2641	1	112.700	488.273
2611	2610	2664	1	122.260	502.080
2593	2592	2652	1	120.000	292.880
2638	2641	2682	1	110.700	313.800
2678	2640	2679	1	107.800	276.144
2609	2608	2663	1	120.000	292.880
2615	2614	2667	1	123.300	292.880
2631	2630	2670	1	120.000	292.880
2597	2599	2600	1	120.000	527.184
2685	2686	2687	1	107.200	433.462
2686	2687	2688	1	109.470	470.282
2687	2688	2689	1	109.500	418.400
2688	2689	2690	1	111.000	627.600
2689	2690	2691	1	120.000	585.760
2690	2691	2692	1	120.000	527.184
2691	2692	2693	1	120.000	527.184
2692	2693	2694	1	120.000	527.184
2693	2694	2695	1	120.000	527.184
2694	2695	2696	1	120.000	527.184
2695	2696	2697	1	120.000	527.184
2696	2697	2698	1	109.5	0.0
2696	2697	2699	1	120.000	527.184
2693	2694	2700	1	120.000	527.184
2692	2693	2701	1	120.000	527.184
2689	2690	2702	1	120.000	585.760
2685	2686	2703	1	116.000	418.400
2686	2703	2704	1	120.000	585.760
2703	2704	2705	1	120.000	527.184
2704	2705	2706	1	120.000	527.184
2705	2706	2707	1	124.000	585.760
2706	2707	2708	1	117.000	711.280
2707	2708	2709	1	124.000	585.760
2708	2709	2710	1	124.000	585.760
2709	2710	2711	1	124.000	585.760
2710	2711	2712	1	124.000	585.760
2711	2712	2713	1	124.000	585.760
2712	2713	2714	1	124.000	585.760
2713	2714	2715	1	117.000	711.280
2714	2715	2716	1	118.760	505.678
2715	2716	2717	1	124.000	585.760
2716	2717	2718	1	180.000	1255.200
2715	2716	2719	1	117.000	711.280
2716	2719	2720	1	124.000	585.760
2719	2720	2721	1	122.000	669.440
2720	2721	2722	1	180.000	1255.200
2719	2720	2723	1	122.000	669.440
2720	2723	2724	1	180.000	1255.200
2716	2719	2725	1	110.000	585.760
2714	2715	2726	1	124.000	585.760
2715	2726	2727	1	109.500	334.720
2726	2727	2728	1	120.000	585.760
2727	2728	2729	1	120.000	527.184
2728	2729	2730	1	120.000	527.184
2729	2730	2731	1	120.000	527.184
2726	2727	2732	1	120.000	585.760
2715	2726	2733	1	111.100	527.184
2726	2733	2734	1	109.500	418.400
2726	2733	2735	1	109.500	418.400
2726	2733	2736	1	109.500	418.400
2710	2711	2737	1	124.000	585.760
2711	2737	2738	1	111.100	527.184
2737	2738	2739	1	112.700	488.273
2737	2738	2740	1	112.700	488.273
2708	2709	2741	1	124.000	585.760
2705	2706	2742	1	120.000	527.184
2686	2703	2743	1	120.000	585.760
2686	2685	2744	1	109.500	292.880
2686	2685	2745	1	109.500	292.880
2686	2685	2746	1	109.500	292.880
2686	2687	2747	1	109.500	292.880
2686	2687	2748	1	109.500	292.880
2687	2688	2749	1	110.700	313.800
2687	2688	2750	1	110.700	313.800
2690	2691	2751	1	120.000	292.880
2691	2692	2752	1	120.000	292.880
2694	2695	2753	1	120.000	292.880
2695	2696	2754	1	120.000	292.880
2697	2698	2755	1	109.5	0.0
2697	2699	2756	1	120.000	292.880
2694	2700	2757	1	120.000	292.880
2693	2701	2758	1	120.000	292.880
2690	2702	2759	1	120.000	292.880
2703	2704	2760	1	120.000	292.880
2704	2705	2761	1	120.000	292.880
2706	2707	2762	1	123.300	292.880
2707	2708	2763	1	120.000	292.880
2709	2710	2764	1	122.260	502.080
2711	2712	2765	1	120.000	292.880
2712	2713	2766	1	120.000	292.880
2713	2714	2767	1	120.000	292.880
2727	2728	2768	1	120.000	292.880
2728	2729	2769	1	120.000	292.880
2729	2730	2770	1	120.000	292.880
2730	2731	2771	1	120.000	292.880
2727	2732	2772	1	120.000	292.880
2711	2737	2773	1	109.500	292.880
2711	2737	2774	1	109.500	292.880
2738	2739	2775	1	110.700	313.800
2738	2739	2776	1	110.700	313.800
2738	2739	2777	1	110.700	313.800
2738	2740	2778	1	110.700	313.800
2738	2740	2779	1	110.700	313.800
2738	2740	2780	1	110.700	313.800
2709	2741	2781	1	109.500	292.880
2709	2741	2782	1	109.500	292.880
2706	2742	2783	1	120.000	292.880
2703	2743	2784	1	120.000	292.880
2702	2701	2758	1	120.000	292.880
2706	2742	2743	1	120.000	527.184
2691	2690	2702	1	120.000	527.184
2738	2737	2774	1	110.700	313.800
2705	2704	2760	1	120.000	292.880
2742	2743	2784	1	120.000	292.880
2703	2743	2742	1	120.000	527.184
2730	2731	2732	1	120.000	527.184
2745	2685	2746	1	107.800	276.144
2698	2697	2699	1	109.5	0.0
2710	2709	2741	1	124.000	585.760
2738	2741	2781	1	110.700	313.800
2696	2695	2753	1	120.000	292.880
2732	2731	2771	1	120.000	292.880
2779	2740	2780	1	107.800	276.144
2721	2720	2723	1	118.760	505.678
2689	2688	2750	1	109.500	292.880
2689	2688	2749	1	109.500	292.880
2740	2738	2741	1	112.700	488.273
2781	2741	2782	1	107.800	276.144
2727	2732	2731	1	120.000	527.184
2717	2716	2719	1	122.000	669.440
2719	2725	2726	1	111.000	627.600
2708	2707	2762	1	120.000	292.880
2701	2702	2759	1	120.000	292.880
2693	2701	2702	1	120.000	527.184
2730	2729	2769	1	120.000	292.880
2694	2693	2701	1	120.000	527.184
2744	2685	2746	1	107.800	276.144
2713	2712	2765	1	120.000	292.880
2694	2700	2699	1	120.000	527.184
2728	2727	2732	1	120.000	527.184
2720	2719	2725	1	120.000	585.760
2700	2699	2756	1	120.000	292.880
2706	2705	2761	1	120.000	292.880
2734	2733	2736	1	109.100	644.336
2725	2726	2733	1	109.500	418.400
2743	2742	2783	1	120.000	292.880
2776	2739	2777	1	107.800	276.144
2690	2702	2701	1	120.000	527.184
2695	2694	2700	1	120.000	527.184
2738	2737	2773	1	110.700	313.800
2727	2726	2733	1	114.000	527.184
2729	2728	2768	1	120.000	292.880
2725	2726	2727	1	109.500	418.400
2731	2732	2772	1	120.000	292.880
2773	2737	2774	1	107.800	276.144
2692	2691	2751	1	120.000	292.880
2775	2739	2777	1	107.800	276.144
2688	2687	2748	1	110.700	313.800
2712	2711	2737	1	124.000	585.760
2734	2733	2735	1	109.100	644.336
2688	2687	2747	1	110.700	313.800
2775	2739	2776	1	107.800	276.144
2707	2706	2742	1	124.000	585.760
2716	2715	2726	1	124.000	585.760
2704	2703	2743	1	120.000	527.184
2739	2738	2740	1	112.700	488.273
2699	2700	2757	1	120.000	292.880
2715	2726	2725	1	109.500	418.400
2737	2738	2741	1	112.700	488.273
2709	2741	2738	1	111.100	527.184
2749	2688	2750	1	107.800	276.144
2735	2733	2736	1	109.100	644.336
2744	2685	2745	1	107.800	276.144
2697	2696	2754	1	120.000	292.880
2714	2713	2766	1	120.000	292.880
2778	2740	2780	1	107.800	276.144
2747	2687	2748	1	107.800	276.144
2687	2686	2703	1	116.000	418.400
2739	2738	2741	1	112.700	488.273
2711	2710	2764	1	122.260	502.080
2693	2692	2752	1	120.000	292.880
2738	2741	2782	1	110.700	313.800
2778	2740	2779	1	107.800	276.144
2709	2708	2763	1	120.000	292.880
2715	2714	2767	1	123.300	292.880
2731	2730	2770	1	120.000	292.880
2697	2699	2700	1	120.000	527.184
2785	2786	2787	1	107.200	433.462
2786	2787	2788	1	109.470	470.282
2787	2788	2789	1	109.500	418.400
2788	2789	2790	1	111.000	627.600
2789	2790	2791	1	120.000	585.760
2790	2791	2792	1	120.000	527.184
2791	2792	2793	1	120.000	527.184
2792	2793	2794	1	120.000	527.184
2793	2794	2795	1	120.000	527.184
2794	2795	2796	1	120.000	527.184
2795	2796	2797	1	120.000	527.184
2796	2797	2798	1	109.5	0.0
2796	2797	2799	1	120.000	527.184
2793	2794	2800	1	120.000	527.184
2792	2793	2801	1	120.000	527.184
2789	2790	2802	1	120.000	585.760
2785	2786	2803	1	116.000	418.400
2786	2803	2804	1	120.000	585.760
2803	2804	2805	1	120.000	527.184
2804	2805	2806	1	120.000	527.184
2805	2806	2807	1	124.000	585.760
2806	2807	2808	1	117.000	711.280
2807	2808	2809	1	124.000	585.760
2808	2809	2810	1	124.000	585.760
2809	2810	2811	1	124.000	585.760
2810	2811	2812	1	124.000	585.760
2811	2812	2813	1	124.000	585.760
2812	2813	2814	1	124.000	585.760
2813	2814	2815	1	117.000	711.280
2814	2815	2816	1	118.760	505.678
2815	2816	2817	1	124.000	585.760
2816	2817	2818	1	180.000	1255.200
2815	2816	2819	1	117.000	711.280
2816	2819	2820	1	124.000	585.760
2819	2820	2821	1	122.000	669.440
2820	2821	2822	1	180.000	1255.200
2819	2820	2823	1	122.000	669.440
2820	2823	2824	1	180.000	1255.200
2816	2819	2825	1	110.000	585.760
2814	2815	2826	1	124.000	585.760
2815	2826	2827	1	109.500	334.720
2826	2827	2828	1	120.000	585.760
2827	2828	2829	1	120.000	527.184
2828	2829	2830	1	120.000	527.184
2829	2830	2831	1	120.000	527.184
2826	2827	2832	1	120.000	585.760
2815	2826	2833	1	111.100	527.184
2826	2833	2834	1	109.500	418.400
2826	2833	2835	1	109.500	418.400
2826	2833	2836	1	109.500	418.400
2810	2811	2837	1	124.000	585.760
2811	2837	2838	1	111.100	527.184
2837	2838	2839	1	112.700	488.273
2837	2838	2840	1	112.700	488.273
2808	2809	2841	1	124.000	585.760
2805	2806	2842	1	120.000	527.184
2786	2803	2843	1	120.000	585.760
2786	2785	2844	1	109.500	292.880
2786	2785	2845	1	109.500	292.880
2786	2785	2846	1	109.500	292.880
2786	2787	2847	1	109.500	292.880
2786	2787	2848	1	109.500	292.880
2787	2788	2849	1	110.700	313.800
2787	2788	2850	1	110.700	313.800
2790	2791	2851	1	120.000	292.880
2791	2792	2852	1	120.000	292.880
2794	2795	2853	1	120.000	292.880
2795	2796	2854	1	120.000	292.880
2797	2798	2855	1	109.5	0.0
2797	2799	2856	1	120.000	292.880
2794	2800	2857	1	120.000	292.880
2793	2801	2858	1	120.000	292.880
2790	2802	2859	1	120.000	292.880
2803	2804	2860	1	120.000	292.880
2804	2805	2861	1	120.000	292.880
2806	2807	2862	1	123.300	292.880
2807	2808	2863	1	120.000	292.880
2809	2810	2864	1	122.260	502.080
2811	2812	2865	1	120.000	292.880
2812	2813	2866	1	120.000	292.880
2813	2814	2867	1	120.000	292.880
2827	2828	2868	1	120.000	292.880
2828	2829	2869	1	120.000	292.880
2829	2830	2870	1	120.000	292.880
2830	2831	2871	1	120.000	292.880
2827	2832	2872	1	120.000	292.880
2811	2837	2873	1	109.500	292.880
2811	2837	2874	1	109.500	292.880
2838	2839	2875	1	110.700	313.800
2838	2839	2876	1	110.700	313.800
2838	2839	2877	1	110.700	313.800
2838	2840	2878	1	110.700	313.800
2838	2840	2879	1	110.700	313.800
2838	2840	2880	1	110.700	313.800
2809	2841	2881	1	109.500	292.880
2809	2841	2882	1	109.500	292.880
2806	2842	2883	1	120.000	292.880
2803	2843	2884	1	120.000	292.880
2802	2801	2858	1	120.000	292.880
2806	2842	2843	1	120.000	527.184
2791	2790	2802	1	120.000	527.184
2838	2837	2874	1	110.700	313.800
2805	2804	2860	1	120.000	292.880
2842	2843	2884	1	120.000	292.880
2803	2843	2842	1	120.000	527.184
2830	2831	2832	1	120.000	527.184
2845	2785	2846	1	107.800	276.144
2798	2797	2799	1	109.5	0.0
2810	2809	2841	1	124.000	585.760
2838	2841	2881	1	110.700	313.800
2796	2795	2853	1	120.000	292.880
2832	2831	2871	1	120.000	292.880
2879	2840	2880	1	107.800	276.144
2821	2820	2823	1	118.760	505.678
2789	2788	2850	1	109.500	292.880
2789	2788	2849	1	109.500	292.880
2840	2838	2841	1	112.700	488.273
2881	2841	2882	1	107.800	276.144
2827	2832	2831	1	120.000	527.184
2817	2816	2819	1	122.000	669.440
2819	2825	2826	1	111.000	627.600
2808	2807	2862	1	120.000	292.880
2801	2802	2859	1	120.000	292.880
2793	2801	2802	1	120.000	527.184
2830	2829	2869	1	120.000	292.880
2794	2793	2801	1	120.000	527.184
2844	2785	2846	1	107.800	276.144
2813	2812	2865	1	120.000	292.880
2794	2800	2799	1	120.000	527.184
2828	2827	2832	1	120.000	527.184
2820	2819	2825	1	120.000	585.760
2800	2799	2856	1	120.000	292.880
2806	2805	2861	1	120.000	292.880
2834	2833	2836	1	109.100	644.336
2825	2826	2833	1	109.500	418.400
2843	2842	2883	1	120.000	292.880
2876	2839	2877	1	107.800	276.144
2790	2802	2801	1	120.000	527.184
2795	2794	2800	1	120.000	527.184
2838	2837	2873	1	110.700	313.800
2827	2826	2833	1	114.000	527.184
2829	2828	2868	1	120.000	292.880
2825	2826	2827	1	109.500	418.400
2831	2832	2872	1	120.000	292.880
2873	2837	2874	1	107.800	276.144
2792	2791	2851	1	120.000	292.880
2875	2839	2877	1	107.800	276.144
2788	2787	2848	1	110.700	313.800
2812	2811	2837	1	124.000	585.760
2834	2833	2835	1	109.100	644.336
2788	2787	2847	1	110.700	313.800
2875	2839	2876	1	107.800	276.144
2807	2806	2842	1	124.000	585.760
2816	2815	2826	1	124.000	585.760
2804	2803	2843	1	120.000	527.184
2839	2838	2840	1	112.700	488.273
2799	2800	2857	1	120.000	292.880
2815	2826	2825	1	109.500	418.400
2837	2838	2841	1	112.700	488.273
2809	2841	2838	1	111.100	527.184
2849	2788	2850	1	107.800	276.144
2835	2833	2836	1	109.100	644.336
2844	2785	2845	1	107.800	276.144
2797	2796	2854	1	120.000	292.880
2814	2813	2866	1	120.000	292.880
2878	2840	2880	1	107.800	276.144
2847	2787	2848	1	107.800	276.144
2787	2786	2803	1	116.000	418.400
2839	2838	2841	1	112.700	488.273
2811	2810	2864	1	122.260	502.080
2793	2792	2852	1	120.000	292.880
2838	2841	2882	1	110.700	313.800
2878	2840	2879	1	107.800	276.144
2809	2808	2863	1	120.000	292.880
2815	2814	2867	1	123.300	292.880
2831	2830	2870	1	120.000	292.880
2797	2799	2800	1	120.000	527.184
2885	2886	2887	1	107.200	433.462
2886	2887	2888	1	109.470	470.282
2887	2888	2889	1	109.500	418.400
2888	2889	2890	1	111.000	627.600
2889	2890	2891	1	120.000	585.760
2890	2891	2892	1	120.000	527.184
2891	2892	2893	1	120.000	527.184
2892	2893	2894	1	120.000	527.184
2893	2894	2895	1	120.000	527.184
2894	2895	2896	1	120.000	527.184
2895	2896	2897	1	120.000	527.184
2896	2897	2898	1	109.5	0.0
2896	2897	2899	1	120.000	527.184
2893	2894	2900	1	120.000	527.184
2892	2893	2901	1	120.000	527.184
2889	2890	2902	1	120.000	585.760
2885	2886	2903	1	116.000	418.400
2886	2903	2904	1	120.000	585.760
2903	2904	2905	1	120.000	527.184
2904	2905	2906	1	120.000	527.184
2905	2906	2907	1	124.000	585.760
2906	2907	2908	1	117.000	711.280
2907	2908	2909	1	124.000	585.760
2908	2909	2910	1	124.000	585.760
2909	2910	2911	1	124.000	585.760
2910	2911	2912	1	124.000	585.760
2911	2912	2913	1	124.000	585.760
2912	2913	2914	1	124.000	585.760
2913	2914	2915	1	117.000	711.280
2914	2915	2916	1	118.760	505.678
2915	2916	2917	1	124.000	585.760
2916	2917	2918	1	180.000	1255.200
2915	2916	2919	1	117.000	711.280
2916	2919	2920	1	124.000	585.760
2919	2920	2921	1	122.000	669.440
2920	2921	2922	1	180.000	1255.200
2919	2920	2923	1	122.000	669.440
2920	2923	2924	1	180.000	1255.200
2916	2919	2925	1	110.000	585.760
2914	2915	2926	1	124.000	585.760
2915	2926	2927	1	109.500	334.720
2926	2927	2928	1	120.000	585.760
2927	2928	2929	1	120.000	527.184
2928	2929	2930	1	120.000	527.184
2929	2930	2931	1	120.000	527.184
2926	2927	2932	1	120.000	585.760
2915	2926	2933	1	111.100	527.184
2926	2933	2934	1	109.500	418.400
2926	2933	2935	1	109.500	418.400
2926	2933	2936	1	109.500	418.400
2910	2911	2937	1	124.000	585.760
2911	2937	2938	1	111.100	527.184
2937	2938	2939	1	112.700	488.273
2937	2938	2940	1	112.700	488.273
2908	2909	2941	1	124.000	585.760
2905	2906	2942	1	120.000	527.184
2886	2903	2943	1	120.000	585.760
2886	2885	2944	1	109.500	292.880
2886	2885	2945	1	109.500	292.880
2886	2885	2946	1	109.500	292.880
2886	2887	2947	1	109.500	292.880
2886	2887	2948	1	109.500	292.880
2887	2888	2949	1	110.700	313.800
2887	2888	2950	1	110.700	313.800
2890	2891	2951	1	120.000	292.880
2891	2892	2952	1	120.000	292.880
2894	2895	2953	1	120.000	292.880
2895	2896	2954	1	120.000	292.880
2897	2898	2955	1	109.5	0.0
2897	2899	2956	1	120.000	292.880
2894	2900	2957	1	120.000	292.880
2893	2901	2958	1	120.000	292.880
2890	2902	2959	1	120.000	292.880
2903	2904	2960	1	120.000	292.880
2904	2905	2961	1	120.000	292.880
2906	2907	2962	1	123.300	292.880
2907	2908	2963	1	120.000	292.880
2909	2910	2964	1	122.260	502.080
2911	2912	2965	1	120.000	292.880
2912	2913	2966	1	120.000	292.880
2913	2914	2967	1	120.000	292.880
2927	2928	2968	1	120.000	292.880
2928	2929	2969	1	120.000	292.880
2929	2930	2970	1	120.000	292.880
2930	2931	2971	1	120.000	292.880
2927	2932	2972	1	120.000	292.880
2911	2937	2973	1	109.500	292.880
2911	2937	2974	1	109.500	292.880
2938	2939	2975	1	110.700	313.800
2938	2939	2976	1	110.700	313.800
2938	2939	2977	1	110.700	313.800
2938	2940	2978	1	110.700	313.800
2938	2940	2979	1	110.700	313.800
2938	2940	2980	1	110.700	313.800
2909	2941	2981	1	109.500	292.880
2909	2941	2982	1	109.500	292.880
2906	2942	2983	1	120.000	292.880
2903	2943	2984	1	120.000	292.880
2902	2901	2958	1	120.000	292.880
2906	2942	2943	1	120.000	527.184
2891	2890	2902	1	120.000	527.184
2938	2937	2974	1	110.700	313.800
2905	2904	2960	1	120.000	292.880
2942	2943	2984	1	120.000	292.880
2903	2943	2942	1	120.000	527.184
2930	2931	2932	1	120.000	527.184
2945	2885	2946	1	107.800	276.144
2898	2897	2899	1	109.5	0.0
2910	2909	2941	1	124.000	585.760
2938	2941	2981	1	110.700	313.800
2896	2895	2953	1	120.000	292.880
2932	2931	2971	1	120.000	292.880
2979	2940	2980	1	107.800	276.144
2921	2920	2923	1	118.760	505.678
2889	2888	2950	1	109.500	292.880
2889	2888	2949	1	109.500	292.880
2940	2938	2941	1	112.700	488.273
2981	2941	2982	1	107.800	276.144
2927	2932	2931	1	120.000	527.184
2917	2916	2919	1	122.000	669.440
2919	2925	2926	1	111.000	627.600
2908	2907	2962	1	120.000	292.880
2901	2902	2959	1	120.000	292.880
2893	2901	2902	1	120.000	527.184
2930	2929	2969	1	120.000	292.880
2894	2893	2901	1	120.000	527.184
2944	2885	2946	1	107.800	276.144
2913	2912	2965	1	120.000	292.880
2894	2900	2899	1	120.000	527.184
2928	2927	2932	1	120.000	527.184
2920	2919	2925	1	120.000	585.760
2900	2899	2956	1	120.000	292.880
2906	2905	2961	1	120.000	292.880
2934	2933	2936	1	109.100	644.336
2925	2926	2933	1	109.500	418.400
2943	2942	2983	1	120.000	292.880
2976	2939	2977	1	107.800	276.144
2890	2902	2901	1	120.000	527.184
2895	2894	2900	1	120.000	527.184
2938	2937	2973	1	110.700	313.800
2927	2926	2933	1	114.000	527.184
2929	2928	2968	1	120.000	292.880
2925	2926	2927	1	109.500	418.400
2931	2932	2972	1	120.000	292.880
2973	2937	2974	1	107.800	276.144
2892	2891	2951	1	120.000	292.880
2975	2939	2977	1	107.800	276.144
2888	2887	2948	1	110.700	313.800
2912	2911	2937	1	124.000	585.760
2934	2933	2935	1	109.100	644.336
2888	2887	2947	1	110.700	313.800
2975	2939	2976	1	107.800	276.144
2907	2906	2942	1	124.000	585.760
2916	2915	2926	1	124.000	585.760
2904	2903	2943	1	120.000	527.184
2939	2938	2940	1	112.700	488.273
2899	2900	2957	1	120.000	292.880
2915	2926	2925	1	109.500	418.400
2937	2938	2941	1	112.700	488.273
2909	2941	2938	1	111.100	527.184
2949	2888	2950	1	107.800	276.144
2935	2933	2936	1	109.100	644.336
2944	2885	2945	1	107.800	276.144
2897	2896	2954	1	120.000	292.880
2914	2913	2966	1	120.000	292.880
2978	2940	2980	1	107.800	276.144
2947	2887	2948	1	107.800	276.144
2887	2886	2903	1	116.000	418.400
2939	2938	2941	1	112.700	488.273
2911	2910	2964	1	122.260	502.080
2893	2892	2952	1	120.000	292.880
2938	2941	2982	1	110.700	313.800
2978	2940	2979	1	107.800	276.144
2909	2908	2963	1	120.000	292.880
2915	2914	2967	1	123.300	292.880
2931	2930	2970	1	120.000	292.880
2897	2899	2900	1	120.000	527.184
2985	2986	2987	1	107.200	433.462
2986	2987	2988	1	109.470	470.282
2987	2988	2989	1	109.500	418.400
2988	2989	2990	1	111.000	627.600
2989	2990	2991	1	120.000	585.760
2990	2991	2992	1	120.000	527.184
2991	2992	2993	1	120.000	527.184
2992	2993	2994	1	120.000	527.184
2993	2994	2995	1	120.000	527.184
2994	2995	2996	1	120.000	527.184
2995	2996	2997	1	120.000	527.184
2996	2997	2998	1	109.5	0.0
2996	2997	2999	1	120.000	527.184
2993	2994	3000	1	120.000	527.184
2992	2993	3001	1	120.000	527.184
2989	2990	3002	1	120.000	585.760
2985	2986	3003	1	116.000	418.400
2986	3003	3004	1	120.000	585.760
3003	3004	3005	1	120.000	527.184
3004	3005	3006	1	120.000	527.184
3005	3006	3007	1	124.000	585.760
3006	3007	3008	1	117.000	711.280
3007	3008	3009	1	124.000	585.760
3008	3009	3010	1	124.000	585.760
3009	3010	3011	1	124.000	585.760
3010	3011	3012	1	124.000	585.760
3011	3012	3013	1	124.000	585.760
3012	3013	3014	1	124.000	585.760
3013	3014	3015	1	117.000	711.280
3014	3015	3016	1	118.760	505.678
3015	3016	3017	1	124.000	585.760
3016	3017	3018	1	180.000	1255.200
3015	3016	3019	1	117.000	711.280
3016	3019	3020	1	124.000	585.760
3019	3020	3021	1	122.000	669.440
3020	3021	3022	1	180.000	1255.200
3019	3020	3023	1	122.000	669.440
3020	3023	3024	1	180.000	1255.200
3016	3019	3025	1	110.000	585.760
3014	3015	3026	1	124.000	585.760
3015	3026	3027	1	109.500	334.720
3026	3027	3028	1	120.000	585.760
3027	3028	3029	1	120.000	527.184
3028	3029	3030	1	120.000	527.184
3029	3030	3031	1	120.000	527.184
3026	3027	3032	1	120.000	585.760
3015	3026	3033	1	111.100	527.184
3026	3033	3034	1	109.500	418.400
3026	3033	3035	1	109.500	418.400
3026	3033	3036	1	109.500	418.400
3010	3011	3037	1	124.000	585.760
3011	3037	3038	1	111.100	527.184
3037	3038	3039	1	112.700	488.273
3037	3038	3040	1	112.700	488.273
3008	3009	3041	1	124.000	585.760
3005	3006	3042	1	120.000	527.184
2986	3003	3043	1	120.000	585.760
2986	2985	3044	1	109.500	292.880
2986	2985	3045	1	109.500	292.880
2986	2985	3046	1	109.500	292.880
2986	2987	3047	1	109.500	292.880
2986	2987	3048	1	109.500	292.880
2987	2988	3049	1	110.700	313.800
2987	2988	3050	1	110.700	313.800
2990	2991	3051	1	120.000	292.880
2991	2992	3052	1	120.000	292.880
2994	2995	3053	1	120.000	292.880
2995	2996	3054	1	120.000	292.880
2997	2998	3055	1	109.5	0.0
2997	2999	3056	1	120.000	292.880
2994	3000	3057	1	120.000	292.880
2993	3001	3058	1	120.000	292.880
2990	3002	3059	1	120.000	292.880
3003	3004	3060	1	120.000	292.880
3004	3005	3061	1	120.000	292.880
3006	3007	3062	1	123.300	292.880
3007	3008	3063	1	120.000	292.880
3009	3010	3064	1	122.260	502.080
3011	3012	3065	1	120.000	292.880
3012	3013	3066	1	120.000	292.880
3013	3014	3067	1	120.000	292.880
3027	3028	3068	1	120.000	292.880
3028	3029	3069	1	120.000	292.880
3029	3030	3070	1	120.000	292.880
3030	3031	3071	1	120.000	292.880
3027	3032	3072	1	120.000	292.880
3011	3037	3073	1	109.500	292.880
3011	3037	3074	1	109.500	292.880
3038	3039	3075	1	110.700	313.800
3038	3039	3076	1	110.700	313.800
3038	3039	3077	1	110.700	313.800
3038	3040	3078	1	110.700	313.800
3038	3040	3079	1	110.700	313.800
3038	3040	3080	1	110.700	313.800
3009	3041	3081	1	109.500	292.880
3009	3041	3082	1	109.500	292.880
3006	3042	3083	1	120.000	292.880
3003	3043	3084	1	120.000	292.880
3002	3001	3058	1	120.000	292.880
3006	3042	3043	1	120.000	527.184
2991	2990	3002	1	120.000	527.184
3038	3037	3074	1	110.700	313.800
3005	3004	3060	1	120.000	292.880
3042	3043	3084	1	120.000	292.880
3003	3043	3042	1	120.000	527.184
3030	3031	3032	1	120.000	527.184
3045	2985	3046	1	107.800	276.144
2998	2997	2999	1	109.5	0.0
3010	3009	3041	1	124.000	585.760
3038	3041	3081	1	110.700	313.800
2996	2995	3053	1	120.000	292.880
3032	3031	3071	1	120.000	292.880
3079	3040	3080	1	107.800	276.144
3021	3020	3023	1	118.760	505.678
2989	2988	3050	1	109.500	292.880
2989	2988	3049	1	109.500	292.880
3040	3038	3041	1	112.700	488.273
3081	3041	3082	1	107.800	276.144
3027	3032	3031	1	120.000	527.184
3017	3016	3019	1	122.000	669.440
3019	3025	3026	1	111.000	627.600
3008	3007	3062	1	120.000	292.880
3001	3002	3059	1	120.000	292.880
2993	3001	3002	1	120.000	527.184
3030	3029	3069	1	120.000	292.880
2994	2993	3001	1	120.000	527.184
3044	2985	3046	1	107.800	276.144
3013	3012	3065	1	120.000	292.880
2994	3000	2999	1	120.000	527.184
3028	3027	3032	1	120.000	527.184
3020	3019	3025	1	120.000	585.760
3000	2999	3056	1	120.000	292.880
3006	3005	3061	1	120.000	292.880
3034	3033	3036	1	109.100	644.336
3025	3026	3033	1	109.500	418.400
3043	3042	3083	1	120.000	292.880
3076	3039	3077	1	107.800	276.144
2990	3002	3001	1	120.000	527.184
2995	2994	3000	1	120.000	527.184
3038	3037	3073	1	110.700	313.800
3027	3026	3033	1	114.000	527.184
3029	3028	3068	1	120.000	292.880
3025	3026	3027	1	109.500	418.400
3031	3032	3072	1	120.000	292.880
3073	3037	3074	1	107.800	276.144
2992	2991	3051	1	120.000	292.880
3075	3039	3077	1	107.800	276.144
2988	2987	3048	1	110.700	313.800
3012	3011	3037	1	124.000	585.760
3034	3033	3035	1	109.100	644.336
2988	2987	3047	1	110.700	313.800
3075	3039	3076	1	107.800	276.144
3007	3006	3042	1	124.000	585.760
3016	3015	3026	1	124.000	585.760
3004	3003	3043	1	120.000	527.184
3039	3038	3040	1	112.700	488.273
2999	3000	3057	1	120.000	292.880
3015	3026	3025	1	109.500	418.400
3037	3038	3041	1	112.700	488.273
3009	3041	3038	1	111.100	527.184
3049	2988	3050	1	107.800	276.144
3035	3033	3036	1	109.100	644.336
3044	2985	3045	1	107.800	276.144
2997	2996	3054	1	120.000	292.880
3014	3013	3066	1	120.000	292.880
3078	3040	3080	1	107.800	276.144
3047	2987	3048	1	107.800	276.144
2987	2986	3003	1	116.000	418.400
3039	3038	3041	1	112.700	488.273
3011	3010	3064	1	122.260	502.080
2993	2992	3052	1	120.000	292.880
3038	3041	3082	1	110.700	313.800
3078	3040	3079	1	107.800	276.144
3009	3008	3063	1	120.000	292.880
3015	3014	3067	1	123.300	292.880
3031	3030	3070	1	120.000	292.880
2997	2999	3000	1	120.000	527.184
3085	3086	3087	1	107.200	433.462
3086	3087	3088	1	109.470	470.282
3087	3088	3089	1	109.500	418.400
3088	3089	3090	1	111.000	627.600
3089	3090	3091	1	120.000	585.760
3090	3091	3092	1	120.000	527.184
3091	3092	3093	1	120.000	527.184
3092	3093	3094	1	120.000	527.184
3093	3094	3095	1	120.000	527.184
3094	3095	3096	1	120.000	527.184
3095	3096	3097	1	120.000	527.184
3096	3097	3098	1	109.5	0.0
3096	3097	3099	1	120.000	527.184
3093	3094	3100	1	120.000	527.184
3092	3093	3101	1	120.000	527.184
3089	3090	3102	1	120.000	585.760
3085	3086	3103	1	116.000	418.400
3086	3103	3104	1	120.000	585.760
3103	3104	3105	1	120.000	527.184
3104	3105	3106	1	120.000	527.184
3105	3106	3107	1	124.000	585.760
3106	3107	3108	1	117.000	711.280
3107	3108	3109	1	124.000	585.760
3108	3109	3110	1	124.000	585.760
3109	3110	3111	1	124.000	585.760
3110	3111	3112	1	124.000	585.760
3111	3112	3113	1	124.000	585.760
3112	3113	3114	1	124.000	585.760
3113	3114	3115	1	117.000	711.280
3114	3115	3116	1	118.760	505.678
3115	3116	3117	1	124.000	585.760
3116	3117	3118	1	180.000	1255.200
3115	3116	3119	1	117.000	711.280
3116	3119	3120	1	124.000	585.760
3119	3120	3121	1	122.000	669.440
3120	3121	3122	1	180.000	1255.200
3119	3120	3123	1	122.000	669.440
3120	3123	3124	1	180.000	1255.200
3116	3119	3125	1	110.000	585.760
3114	3115	3126	1	124.000	585.760
3115	3126	3127	1	109.500	334.720
3126	3127	3128	1	120.000	585.760
3127	3128	3129	1	120.000	527.184
3128	3129	3130	1	120.000	527.184
3129	3130	3131	1	120.000	527.184
3126	3127	3132	1	120.000	585.760
3115	3126	3133	1	111.100	527.184
3126	3133	3134	1	109.500	418.400
3126	3133	3135	1	109.500	418.400
3126	3133	3136	1	109.500	418.400
3110	3111	3137	1	124.000	585.760
3111	3137	3138	1	111.100	527.184
3137	3138	3139	1	112.700	488.273
3137	3138	3140	1	112.700	488.273
3108	3109	3141	1	124.000	585.760
3105	3106	3142	1	120.000	527.184
3086	3103	3143	1	120.000	585.760
3086	3085	3144	1	109.500	292.880
3086	3085	3145	1	109.500	292.880
3086	3085	3146	1	109.500	292.880
3086	3087	3147	1	109.500	292.880
3086	3087	3148	1	109.500	292.880
3087	3088	3149	1	110.700	313.800
3087	3088	3150	1	110.700	313.800
3090	3091	3151	1	120.000	292.880
3091	3092	3152	1	120.000	292.880
3094	3095	3153	1	120.000	292.880
3095	3096	3154	1	120.000	292.880
3097	3098	3155	1	109.5	0.0
3097	3099	3156	1	120.000	292.880
3094	3100	3157	1	120.000	292.880
3093	3101	3158	1	120.000	292.880
3090	3102	3159	1	120.000	292.880
3103	3104	3160	1	120.000	292.880
3104	3105	3161	1	120.000	292.880
3106	3107	3162	1	123.300	292.880
3107	3108	3163	1	120.000	292.880
3109	3110	3164	1	122.260	502.080
3111	3112	3165	1	120.000	292.880
3112	3113	3166	1	120.000	292.880
3113	3114	3167	1	120.000	292.880
3127	3128	3168	1	120.000	292.880
3128	3129	3169	1	120.000	292.880
3129	3130	3170	1	120.000	292.880
3130	3131	3171	1	120.000	292.880
3127	3132	3172	1	120.000	292.880
3111	3137	3173	1	109.500	292.880
3111	3137	3174	1	109.500	292.880
3138	3139	3175	1	110.700	313.800
3138	3139	3176	1	110.700	313.800
3138	3139	3177	1	110.700	313.800
3138	3140	3178	1	110.700	313.800
3138	3140	3179	1	110.700	313.800
3138	3140	3180	1	110.700	313.800
3109	3141	3181	1	109.500	292.880
3109	3141	3182	1	109.500	292.880
3106	3142	3183	1	120.000	292.880
3103	3143	3184	1	120.000	292.880
3102	3101	3158	1	120.000	292.880
3106	3142	3143	1	120.000	527.184
3091	3090	3102	1	120.000	527.184
3138	3137	3174	1	110.700	313.800
3105	3104	3160	1	120.000	292.880
3142	3143	3184	1	120.000	292.880
3103	3143	3142	1	120.000	527.184
3130	3131	3132	1	120.000	527.184
3145	3085	3146	1	107.800	276.144
3098	3097	3099	1	109.5	0.0
3110	3109	3141	1	124.000	585.760
3138	3141	3181	1	110.700	313.800
3096	3095	3153	1	120.000	292.880
3132	3131	3171	1	120.000	292.880
3179	3140	3180	1	107.800	276.144
3121	3120	3123	1	118.760	505.678
3089	3088	3150	1	109.500	292.880
3089	3088	3149	1	109.500	292.880
3140	3138	3141	1	112.700	488.273
3181	3141	3182	1	107.800	276.144
3127	3132	3131	1	120.000	527.184
3117	3116	3119	1	122.000	669.440
3119	3125	3126	1	111.000	627.600
3108	3107	3162	1	120.000	292.880
3101	3102	3159	1	120.000	292.880
3093	3101	3102	1	120.000	527.184
3130	3129	3169	1	120.000	292.880
3094	3093	3101	1	120.000	527.184
3144	3085	3146	1	107.800	276.144
3113	3112	3165	1	120.000	292.880
3094	3100	3099	1	120.000	527.184
3128	3127	3132	1	120.000	527.184
3120	3119	3125	1	120.000	585.760
3100	3099	3156	1	120.000	292.880
3106	3105	3161	1	120.000	292.880
3134	3133	3136	1	109.100	644.336
3125	3126	3133	1	109.500	418.400
3143	3142	3183	1	120.000	292.880
3176	3139	3177	1	107.800	276.144
3090	3102	3101	1	120.000	527.184
3095	3094	3100	1	120.000	527.184
3138	3137	3173	1	110.700	313.800
3127	3126	3133	1	114.000	527.184
3129	3128	3168	1	120.000	292.880
3125	3126	3127	1	109.500	418.400
3131	3132	3172	1	120.000	292.880
3173	3137	3174	1	107.800	276.144
3092	3091	3151	1	120.000	292.880
3175	3139	3177	1	107.800	276.144
3088	3087	3148	1	110.700	313.800
3112	3111	3137	1	124.000	585.760
3134	3133	3135	1	109.100	644.336
3088	3087	3147	1	110.700	313.800
3175	3139	3176	1	107.800	276.144
3107	3106	3142	1	124.000	585.760
3116	3115	3126	1	124.000	585.760
3104	3103	3143	1	120.000	527.184
3139	3138	3140	1	112.700	488.273
3099	3100	3157	1	120.000	292.880
3115	3126	3125	1	109.500	418.400
3137	3138	3141	1	112.700	488.273
3109	3141	3138	1	111.100	527.184
3149	3088	3150	1	107.800	276.144
3135	3133	3136	1	109.100	644.336
3144	3085	3145	1	107.800	276.144
3097	3096	3154	1	120.000	292.880
3114	3113	3166	1	120.000	292.880
3178	3140	3180	1	107.800	276.144
3147	3087	3148	1	107.800	276.144
3087	3086	3103	1	116.000	418.400
3139	3138	3141	1	112.700	488.273
3111	3110	3164	1	122.260	502.080
3093	3092	3152	1	120.000	292.880
3138	3141	3182	1	110.700	313.800
3178	3140	3179	1	107.800	276.144
3109	3108	3163	1	120.000	292.880
3115	3114	3167	1	123.300	292.880
3131	3130	3170	1	120.000	292.880
3097	3099	3100	1	120.000	527.184
3185	3186	3187	1	107.200	433.462
3186	3187	3188	1	109.470	470.282
3187	3188	3189	1	109.500	418.400
3188	3189	3190	1	111.000	627.600
3189	3190	3191	1	120.000	585.760
3190	3191	3192	1	120.000	527.184
3191	3192	3193	1	120.000	527.184
3192	3193	3194	1	120.000	527.184
3193	3194	3195	1	120.000	527.184
3194	3195	3196	1	120.000	527.184
3195	3196	3197	1	120.000	527.184
3196	3197	3198	1	109.5	0.0
3196	3197	3199	1	120.000	527.184
3193	3194	3200	1	120.000	527.184
3192	3193	3201	1	120.000	527.184
3189	3190	3202	1	120.000	585.760
3185	3186	3203	1	116.000	418.400
3186	3203	3204	1	120.000	585.760
3203	3204	3205	1	120.000	527.184
3204	3205	3206	1	120.000	527.184
3205	3206	3207	1	124.000	585.760
3206	3207	3208	1	117.000	711.280
3207	3208	3209	1	124.000	585.760
3208	3209	3210	1	124.000	585.760
3209	3210	3211	1	124.000	585.760
3210	3211	3212	1	124.000	585.760
3211	3212	3213	1	124.000	585.760
3212	3213	3214	1	124.000	585.760
3213	3214	3215	1	117.000	711.280
3214	3215	3216	1	118.760	505.678
3215	3216	3217	1	124.000	585.760
3216	3217	3218	1	180.000	1255.200
3215	3216	3219	1	117.000	711.280
3216	3219	3220	1	124.000	585.760
3219	3220	3221	1	122.000	669.440
3220	3221	3222	1	180.000	1255.200
3219	3220	3223	1	122.000	669.440
3220	3223	3224	1	180.000	1255.200
3216	3219	3225	1	110.000	585.760
3214	3215	3226	1	124.000	585.760
3215	3226	3227	1	109.500	334.720
3226	3227	3228	1	120.000	585.760
3227	3228	3229	1	120.000	527.184
3228	3229	3230	1	120.000	527.184
3229	3230	3231	1	120.000	527.184
3226	3227	3232	1	120.000	585.760
3215	3226	3233	1	111.100	527.184
3226	3233	3234	1	109.500	418.400
3226	3233	3235	1	109.500	418.400
3226	3233	3236	1	109.500	418.400
3210	3211	3237	1	124.000	585.760
3211	3237	3238	1	111.100	527.184
3237	3238	3239	1	112.700	488.273
3237	3238	3240	1	112.700	488.273
3208	3209	3241	1	124.000	585.760
3205	3206	3242	1	120.000	527.184
3186	3203	3243	1	120.000	585.760
3186	3185	3244	1	109.500	292.880
3186	3185	3245	1	109.500	292.880
3186	3185	3246	1	109.500	292.880
3186	3187	3247	1	109.500	292.880
3186	3187	3248	1	109.500	292.880
3187	3188	3249	1	110.700	313.800
3187	3188	3250	1	110.700	313.800
3190	3191	3251	1	120.000	292.880
3191	3192	3252	1	120.000	292.880
3194	3195	3253	1	120.000	292.880
3195	3196	3254	1	120.000	292.880
3197	3198	3255	1	109.5	0.0
3197	3199	3256	1	120.000	292.880
3194	3200	3257	1	120.000	292.880
3193	3201	3258	1	120.000	292.880
3190	3202	3259	1	120.000	292.880
3203	3204	3260	1	120.000	292.880
3204	3205	3261	1	120.000	292.880
3206	3207	3262	1	123.300	292.880
3207	3208	3263	1	120.000	292.880
3209	3210	3264	1	122.260	502.080
3211	3212	3265	1	120.000	292.880
3212	3213	3266	1	120.000	292.880
3213	3214	3267	1	120.000	292.880
3227	3228	3268	1	120.000	292.880
3228	3229	3269	1	120.000	292.880
3229	3230	3270	1	120.000	292.880
3230	3231	3271	1	120.000	292.880
3227	3232	3272	1	120.000	292.880
3211	3237	3273	1	109.500	292.880
3211	3237	3274	1	109.500	292.880
3238	3239	3275	1	110.700	313.800
3238	3239	3276	1	110.700	313.800
3238	3239	3277	1	110.700	313.800
3238	3240	3278	1	110.700	313.800
3238	3240	3279	1	110.700	313.800
3238	3240	3280	1	110.700	313.800
3209	3241	3281	1	109.500	292.880
3209	3241	3282	1	109.500	292.880
3206	3242	3283	1	120.000	292.880
3203	3243	3284	1	120.000	292.880
3202	3201	3258	1	120.000	292.880
3206	3242	3243	1	120.000	527.184
3191	3190	3202	1	120.000	527.184
3238	3237	3274	1	110.700	313.800
3205	3204	3260	1	120.000	292.880
3242	3243	3284	1	120.000	292.880
3203	3243	3242	1	120.000	527.184
3230	3231	3232	1	120.000	527.184
3245	3185	3246	1	107.800	276.144
3198	3197	3199	1	109.5	0.0
3210	3209	3241	1	124.000	585.760
3238	3241	3281	1	110.700	313.800
3196	3195	3253	1	120.000	292.880
3232	3231	3271	1	120.000	292.880
3279	3240	3280	1	107.800	276.144
3221	3220	3223	1	118.760	505.678
3189	3188	3250	1	109.500	292.880
3189	3188	3249	1	109.500	292.880
3240	3238	3241	1	112.700	488.273
3281	3241	3282	1	107.800	276.144
3227	3232	3231	1	120.000	527.184
3217	3216	3219	1	122.000	669.440
3219	3225	3226	1	111.000	627.600
3208	3207	3262	1	120.000	292.880
3201	3202	3259	1	120.000	292.880
3193	3201	3202	1	120.000	527.184
3230	3229	3269	1	120.000	292.880
3194	3193	3201	1	120.000	527.184
3244	3185	3246	1	107.800	276.144
3213	3212	3265	1	120.000	292.880
3194	3200	3199	1	120.000	527.184
3228	3227	3232	1	120.000	527.184
3220	3219	3225	1	120.000	585.760
3200	3199	3256	1	120.000	292.880
3206	3205	3261	1	120.000	292.880
3234	3233	3236	1	109.100	644.336
3225	3226	3233	1	109.500	418.400
3243	3242	3283	1	120.000	292.880
3276	3239	3277	1	107.800	276.144
3190	3202	3201	1	120.000	527.184
3195	3194	3200	1	120.000	527.184
3238	3237	3273	1	110.700	313.800
3227	3226	3233	1	114.000	527.184
3229	3228	3268	1	120.000	292.880
3225	3226	3227	1	109.500	418.400
3231	3232	3272	1	120.000	292.880
3273	3237	3274	1	107.800	276.144
3192	3191	3251	1	120.000	292.880
3275	3239	3277	1	107.800	276.144
3188	3187	3248	1	110.700	313.800
3212	3211	3237	1	124.000	585.760
3234	3233	3235	1	109.100	644.336
3188	3187	3247	1	110.700	313.800
3275	3239	3276	1	107.800	276.144
3207	3206	3242	1	124.000	585.760
3216	3215	3226	1	124.000	585.760
3204	3203	3243	1	120.000	527.184
3239	3238	3240	1	112.700	488.273
3199	3200	3257	1	120.000	292.880
3215	3226	3225	1	109.500	418.400
3237	3238	3241	1	112.700	488.273
3209	3241	3238	1	111.100	527.184
3249	3188	3250	1	107.800	276.144
3235	3233	3236	1	109.100	644.336
3244	3185	3245	1	107.800	276.144
3197	3196	3254	1	120.000	292.880
3214	3213	3266	1	120.000	292.880
3278	3240	3280	1	107.800	276.144
3247	3187	3248	1	107.800	276.144
3187	3186	3203	1	116.000	418.400
3239	3238	3241	1	112.700	488.273
3211	3210	3264	1	122.260	502.080
3193	3192	3252	1	120.000	292.880
3238	3241	3282	1	110.700	313.800
3278	3240	3279	1	107.800	276.144
3209	3208	3263	1	120.000	292.880
3215	3214	3267	1	123.300	292.880
3231	3230	3270	1	120.000	292.880
3197	3199	3200	1	120.000	527.184
3285	3286	3287	1	107.200	433.462
3286	3287	3288	1	109.470	470.282
3287	3288	3289	1	109.500	418.400
3288	3289	3290	1	111.000	627.600
3289	3290	3291	1	120.000	585.760
3290	3291	3292	1	120.000	527.184
3291	3292	3293	1	120.000	527.184
3292	3293	3294	1	120.000	527.184
3293	3294	3295	1	120.000	527.184
3294	3295	3296	1	120.000	527.184
3295	3296	3297	1	120.000	527.184
3296	3297	3298	1	109.5	0.0
3296	3297	3299	1	120.000	527.184
3293	3294	3300	1	120.000	527.184
3292	3293	3301	1	120.000	527.184
3289	3290	3302	1	120.000	585.760
3285	3286	3303	1	116.000	418.400
3286	3303	3304	1	120.000	585.760
3303	3304	3305	1	120.000	527.184
3304	3305	3306	1	120.000	527.184
3305	3306	3307	1	124.000	585.760
3306	3307	3308	1	117.000	711.280
3307	3308	3309	1	124.000	585.760
3308	3309	3310	1	124.000	585.760
3309	3310	3311	1	124.000	585.760
3310	3311	3312	1	124.000	585.760
3311	3312	3313	1	124.000	585.760
3312	3313	3314	1	124.000	585.760
3313	3314	3315	1	117.000	711.280
3314	3315	3316	1	118.760	505.678
3315	3316	3317	1	124.000	585.760
3316	3317	3318	1	180.000	1255.200
3315	3316	3319	1	117.000	711.280
3316	3319	3320	1	124.000	585.760
3319	3320	3321	1	122.000	669.440
3320	3321	3322	1	180.000	1255.200
3319	3320	3323	1	122.000	669.440
3320	3323	3324	1	180.000	1255.200
3316	3319	3325	1	110.000	585.760
3314	3315	3326	1	124.000	585.760
3315	3326	3327	1	109.500	334.720
3326	3327	3328	1	120.000	585.760
3327	3328	3329	1	120.000	527.184
3328	3329	3330	1	120.000	527.184
3329	3330	3331	1	120.000	527.184
3326	3327	3332	1	120.000	585.760
3315	3326	3333	1	111.100	527.184
3326	3333	3334	1	109.500	418.400
3326	3333	3335	1	109.500	418.400
3326	3333	3336	1	109.500	418.400
3310	3311	3337	1	124.000	585.760
3311	3337	3338	1	111.100	527.184
3337	3338	3339	1	112.700	488.273
3337	3338	3340	1	112.700	488.273
3308	3309	3341	1	124.000	585.760
3305	3306	3342	1	120.000	527.184
3286	3303	3343	1	120.000	585.760
3286	3285	3344	1	109.500	292.880
3286	3285	3345	1	109.500	292.880
3286	3285	3346	1	109.500	292.880
3286	3287	3347	1	109.500	292.880
3286	3287	3348	1	109.500	292.880
3287	3288	3349	1	110.700	313.800
3287	3288	3350	1	110.700	313.800
3290	3291	3351	1	120.000	292.880
3291	3292	3352	1	120.000	292.880
3294	3295	3353	1	120.000	292.880
3295	3296	3354	1	120.000	292.880
3297	3298	3355	1	109.5	0.0
3297	3299	3356	1	120.000	292.880
3294	3300	3357	1	120.000	292.880
3293	3301	3358	1	120.000	292.880
3290	3302	3359	1	120.000	292.880
3303	3304	3360	1	120.000	292.880
3304	3305	3361	1	120.000	292.880
3306	3307	3362	1	123.300	292.880
3307	3308	3363	1	120.000	292.880
3309	3310	3364	1	122.260	502.080
3311	3312	3365	1	120.000	292.880
3312	3313	3366	1	120.000	292.880
3313	3314	3367	1	120.000	292.880
3327	3328	3368	1	120.000	292.880
3328	3329	3369	1	120.000	292.880
3329	3330	3370	1	120.000	292.880
3330	3331	3371	1	120.000	292.880
3327	3332	3372	1	120.000	292.880
3311	3337	3373	1	109.500	292.880
3311	3337	3374	1	109.500	292.880
3338	3339	3375	1	110.700	313.800
3338	3339	3376	1	110.700	313.800
3338	3339	3377	1	110.700	313.800
3338	3340	3378	1	110.700	313.800
3338	3340	3379	1	110.700	313.800
3338	3340	3380	1	110.700	313.800
3309	3341	3381	1	109.500	292.880
3309	3341	3382	1	109.500	292.880
3306	3342	3383	1	120.000	292.880
3303	3343	3384	1	120.000	292.880
3302	3301	3358	1	120.000	292.880
3306	3342	3343	1	120.000	527.184
3291	3290	3302	1	120.000	527.184
3338	3337	3374	1	110.700	313.800
3305	3304	3360	1	120.000	292.880
3342	3343	3384	1	120.000	292.880
3303	3343	3342	1	120.000	527.184
3330	3331	3332	1	120.000	527.184
3345	3285	3346	1	107.800	276.144
3298	3297	3299	1	109.5	0.0
3310	3309	3341	1	124.000	585.760
3338	3341	3381	1	110.700	313.800
3296	3295	3353	1	120.000	292.880
3332	3331	3371	1	120.000	292.880
3379	3340	3380	1	107.800	276.144
3321	3320	3323	1	118.760	505.678
3289	3288	3350	1	109.500	292.880
3289	3288	3349	1	109.500	292.880
3340	3338	3341	1	112.700	488.273
3381	3341	3382	1	107.800	276.144
3327	3332	3331	1	120.000	527.184
3317	3316	3319	1	122.000	669.440
3319	3325	3326	1	111.000	627.600
3308	3307	3362	1	120.000	292.880
3301	3302	3359	1	120.000	292.880
3293	3301	3302	1	120.000	527.184
3330	3329	3369	1	120.000	292.880
3294	3293	3301	1	120.000	527.184
3344	3285	3346	1	107.800	276.144
3313	3312	3365	1	120.000	292.880
3294	3300	3299	1	120.000	527.184
3328	3327	3332	1	120.000	527.184
3320	3319	3325	1	120.000	585.760
3300	3299	3356	1	120.000	292.880
3306	3305	3361	1	120.000	292.880
3334	3333	3336	1	109.100	644.336
3325	3326	3333	1	109.500	418.400
3343	3342	3383	1	120.000	292.880
3376	3339	3377	1	107.800	276.144
3290	3302	3301	1	120.000	527.184
3295	3294	3300	1	120.000	527.184
3338	3337	3373	1	110.700	313.800
3327	3326	3333	1	114.000	527.184
3329	3328	3368	1	120.000	292.880
3325	3326	3327	1	109.500	418.400
3331	3332	3372	1	120.000	292.880
3373	3337	3374	1	107.800	276.144
3292	3291	3351	1	120.000	292.880
3375	3339	3377	1	107.800	276.144
3288	3287	3348	1	110.700	313.800
3312	3311	3337	1	124.000	585.760
3334	3333	3335	1	109.100	644.336
3288	3287	3347	1	110.700	313.800
3375	3339	3376	1	107.800	276.144
3307	3306	3342	1	124.000	585.760
3316	3315	3326	1	124.000	585.760
3304	3303	3343	1	120.000	527.184
3339	3338	3340	1	112.700	488.273
3299	3300	3357	1	120.000	292.880
3315	3326	3325	1	109.500	418.400
3337	3338	3341	1	112.700	488.273
3309	3341	3338	1	111.100	527.184
3349	3288	3350	1	107.800	276.144
3335	3333	3336	1	109.100	644.336
3344	3285	3345	1	107.800	276.144
3297	3296	3354	1	120.000	292.880
3314	3313	3366	1	120.000	292.880
3378	3340	3380	1	107.800	276.144
3347	3287	3348	1	107.800	276.144
3287	3286	3303	1	116.000	418.400
3339	3338	3341	1	112.700	488.273
3311	3310	3364	1	122.260	502.080
3293	3292	3352	1	120.000	292.880
3338	3341	3382	1	110.700	313.800
3378	3340	3379	1	107.800	276.144
3309	3308	3363	1	120.000	292.880
3315	3314	3367	1	123.300	292.880
3331	3330	3370	1	120.000	292.880
3297	3299	3300	1	120.000	527.184
3385	3386	3387	1	107.200	433.462
3386	3387	3388	1	109.470	470.282
3387	3388	3389	1	109.500	418.400
3388	3389	3390	1	111.000	627.600
3389	3390	3391	1	120.000	585.760
3390	3391	3392	1	120.000	527.184
3391	3392	3393	1	120.000	527.184
3392	3393	3394	1	120.000	527.184
3393	3394	3395	1	120.000	527.184
3394	3395	3396	1	120.000	527.184
3395	3396	3397	1	120.000	527.184
3396	3397	3398	1	109.5	0.0
3396	3397	3399	1	120.000	527.184
3393	3394	3400	1	120.000	527.184
3392	3393	3401	1	120.000	527.184
3389	3390	3402	1	120.000	585.760
3385	3386	3403	1	116.000	418.400
3386	3403	3404	1	120.000	585.760
3403	3404	3405	1	120.000	527.184
3404	3405	3406	1	120.000	527.184
3405	3406	3407	1	124.000	585.760
3406	3407	3408	1	117.000	711.280
3407	3408	3409	1	124.000	585.760
3408	3409	3410	1	124.000	585.760
3409	3410	3411	1	124.000	585.760
3410	3411	3412	1	124.000	585.760
3411	3412	3413	1	124.000	585.760
3412	3413	3414	1	124.000	585.760
3413	3414	3415	1	117.000	711.280
3414	3415	3416	1	118.760	505.678
3415	3416	3417	1	124.000	585.760
3416	3417	3418	1	180.000	1255.200
3415	3416	3419	1	117.000	711.280
3416	3419	3420	1	124.000	585.760
3419	3420	3421	1	122.000	669.440
3420	3421	3422	1	180.000	1255.200
3419	3420	3423	1	122.000	669.440
3420	3423	3424	1	180.000	1255.200
3416	3419	3425	1	110.000	585.760
3414	3415	3426	1	124.000	585.760
3415	3426	3427	1	109.500	334.720
3426	3427	3428	1	120.000	585.760
3427	3428	3429	1	120.000	527.184
3428	3429	3430	1	120.000	527.184
3429	3430	3431	1	120.000	527.184
3426	3427	3432	1	120.000	585.760
3415	3426	3433	1	111.100	527.184
3426	3433	3434	1	109.500	418.400
3426	3433	3435	1	109.500	418.400
3426	3433	3436	1	109.500	418.400
3410	3411	3437	1	124.000	585.760
3411	3437	3438	1	111.100	527.184
3437	3438	3439	1	112.700	488.273
3437	3438	3440	1	112.700	488.273
3408	3409	3441	1	124.000	585.760
3405	3406	3442	1	120.000	527.184
3386	3403	3443	1	120.000	585.760
3386	3385	3444	1	109.500	292.880
3386	3385	3445	1	109.500	292.880
3386	3385	3446	1	109.500	292.880
3386	3387	3447	1	109.500	292.880
3386	3387	3448	1	109.500	292.880
3387	3388	3449	1	110.700	313.800
3387	3388	3450	1	110.700	313.800
3390	3391	3451	1	120.000	292.880
3391	3392	3452	1	120.000	292.880
3394	3395	3453	1	120.000	292.880
3395	3396	3454	1	120.000	292.880
3397	3398	3455	1	109.5	0.0
3397	3399	3456	1	120.000	292.880
3394	3400	3457	1	120.000	292.880
3393	3401	3458	1	120.000	292.880
3390	3402	3459	1	120.000	292.880
3403	3404	3460	1	120.000	292.880
3404	3405	3461	1	120.000	292.880
3406	3407	3462	1	123.300	292.880
3407	3408	3463	1	120.000	292.880
3409	3410	3464	1	122.260	502.080
3411	3412	3465	1	120.000	292.880
3412	3413	3466	1	120.000	292.880
3413	3414	3467	1	120.000	292.880
3427	3428	3468	1	120.000	292.880
3428	3429	3469	1	120.000	292.880
3429	3430	3470	1	120.000	292.880
3430	3431	3471	1	120.000	292.880
3427	3432	3472	1	120.000	292.880
3411	3437	3473	1	109.500	292.880
3411	3437	3474	1	109.500	292.880
3438	3439	3475	1	110.700	313.800
3438	3439	3476	1	110.700	313.800
3438	3439	3477	1	110.700	313.800
3438	3440	3478	1	110.700	313.800
3438	3440	3479	1	110.700	313.800
3438	3440	3480	1	110.700	313.800
3409	3441	3481	1	109.500	292.880
3409	3441	3482	1	109.500	292.880
3406	3442	3483	1	120.000	292.880
3403	3443	3484	1	120.000	292.880
3402	3401	3458	1	120.000	292.880
3406	3442	3443	1	120.000	527.184
3391	3390	3402	1	120.000	527.184
3438	3437	3474	1	110.700	313.800
3405	3404	3460	1	120.000	292.880
3442	3443	3484	1	120.000	292.880
3403	3443	3442	1	120.000	527.184
3430	3431	3432	1	120.000	527.184
3445	3385	3446	1	107.800	276.144
3398	3397	3399	1	109.5	0.0
3410	3409	3441	1	124.000	585.760
3438	3441	3481	1	110.700	313.800
3396	3395	3453	1	120.000	292.880
3432	3431	3471	1	120.000	292.880
3479	3440	3480	1	107.800	276.144
3421	3420	3423	1	118.760	505.678
3389	3388	3450	1	109.500	292.880
3389	3388	3449	1	109.500	292.880
3440	3438	3441	1	112.700	488.273
3481	3441	3482	1	107.800	276.144
3427	3432	3431	1	120.000	527.184
3417	3416	3419	1	122.000	669.440
3419	3425	3426	1	111.000	627.600
3408	3407	3462	1	120.000	292.880
3401	3402	3459	1	120.000	292.880
3393	3401	3402	1	120.000	527.184
3430	3429	3469	1	120.000	292.880
3394	3393	3401	1	120.000	527.184
3444	3385	3446	1	107.800	276.144
3413	3412	3465	1	120.000	292.880
3394	3400	3399	1	120.000	527.184
3428	3427	3432	1	120.000	527.184
3420	3419	3425	1	120.000	585.760
3400	3399	3456	1	120.000	292.880
3406	3405	3461	1	120.000	292.880
3434	3433	3436	1	109.100	644.336
3425	3426	3433	1	109.500	418.400
3443	3442	3483	1	120.000	292.880
3476	3439	3477	1	107.800	276.144
3390	3402	3401	1	120.000	527.184
3395	3394	3400	1	120.000	527.184
3438	3437	3473	1	110.700	313.800
3427	3426	3433	1	114.000	527.184
3429	3428	3468	1	120.000	292.880
3425	3426	3427	1	109.500	418.400
3431	3432	3472	1	120.000	292.880
3473	3437	3474	1	107.800	276.144
3392	3391	3451	1	120.000	292.880
3475	3439	3477	1	107.800	276.144
3388	3387	3448	1	110.700	313.800
3412	3411	3437	1	124.000	585.760
3434	3433	3435	1	109.100	644.336
3388	3387	3447	1	110.700	313.800
3475	3439	3476	1	107.800	276.144
3407	3406	3442	1	124.000	585.760
3416	3415	3426	1	124.000	585.760
3404	3403	3443	1	120.000	527.184
3439	3438	3440	1	112.700	488.273
3399	3400	3457	1	120.000	292.880
3415	3426	3425	1	109.500	418.400
3437	3438	3441	1	112.700	488.273
3409	3441	3438	1	111.100	527.184
3449	3388	3450	1	107.800	276.144
3435	3433	3436	1	109.100	644.336
3444	3385	3445	1	107.800	276.144
3397	3396	3454	1	120.000	292.880
3414	3413	3466	1	120.000	292.880
3478	3440	3480	1	107.800	276.144
3447	3387	3448	1	107.800	276.144
3387	3386	3403	1	116.000	418.400
3439	3438	3441	1	112.700	488.273
3411	3410	3464	1	122.260	502.080
3393	3392	3452	1	120.000	292.880
3438	3441	3482	1	110.700	313.800
3478	3440	3479	1	107.800	276.144
3409	3408	3463	1	120.000	292.880
3415	3414	3467	1	123.300	292.880
3431	3430	3470	1	120.000	292.880
3397	3399	3400	1	120.000	527.184
3485	3486	3487	1	107.200	433.462
3486	3487	3488	1	109.470	470.282
3487	3488	3489	1	109.500	418.400
3488	3489	3490	1	111.000	627.600
3489	3490	3491	1	120.000	585.760
3490	3491	3492	1	120.000	527.184
3491	3492	3493	1	120.000	527.184
3492	3493	3494	1	120.000	527.184
3493	3494	3495	1	120.000	527.184
3494	3495	3496	1	120.000	527.184
3495	3496	3497	1	120.000	527.184
3496	3497	3498	1	109.5	0.0
3496	3497	3499	1	120.000	527.184
3493	3494	3500	1	120.000	527.184
3492	3493	3501	1	120.000	527.184
3489	3490	3502	1	120.000	585.760
3485	3486	3503	1	116.000	418.400
3486	3503	3504	1	120.000	585.760
3503	3504	3505	1	120.000	527.184
3504	3505	3506	1	120.000	527.184
3505	3506	3507	1	124.000	585.760
3506	3507	3508	1	117.000	711.280
3507	3508	3509	1	124.000	585.760
3508	3509	3510	1	124.000	585.760
3509	3510	3511	1	124.000	585.760
3510	3511	3512	1	124.000	585.760
3511	3512	3513	1	124.000	585.760
3512	3513	3514	1	124.000	585.760
3513	3514	3515	1	117.000	711.280
3514	3515	3516	1	118.760	505.678
3515	3516	3517	1	124.000	585.760
3516	3517	3518	1	180.000	1255.200
3515	3516	3519	1	117.000	711.280
3516	3519	3520	1	124.000	585.760
3519	3520	3521	1	122.000	669.440
3520	3521	3522	1	180.000	1255.200
3519	3520	3523	1	122.000	669.440
3520	3523	3524	1	180.000	1255.200
3516	3519	3525	1	110.000	585.760
3514	3515	3526	1	124.000	585.760
3515	3526	3527	1	109.500	334.720
3526	3527	3528	1	120.000	585.760
3527	3528	3529	1	120.000	527.184
3528	3529	3530	1	120.000	527.184
3529	3530	3531	1	120.000	527.184
3526	3527	3532	1	120.000	585.760
3515	3526	3533	1	111.100	527.184
3526	3533	3534	1	109.500	418.400
3526	3533	3535	1	109.500	418.400
3526	3533	3536	1	109.500	418.400
3510	3511	3537	1	124.000	585.760
3511	3537	3538	1	111.100	527.184
3537	3538	3539	1	112.700	488.273
3537	3538	3540	1	112.700	488.273
3508	3509	3541	1	124.000	585.760
3505	3506	3542	1	120.000	527.184
3486	3503	3543	1	120.000	585.760
3486	3485	3544	1	109.500	292.880
3486	3485	3545	1	109.500	292.880
3486	3485	3546	1	109.500	292.880
3486	3487	3547	1	109.500	292.880
3486	3487	3548	1	109.500	292.880
3487	3488	3549	1	110.700	313.800
3487	3488	3550	1	110.700	313.800
3490	3491	3551	1	120.000	292.880
3491	3492	3552	1	120.000	292.880
3494	3495	3553	1	120.000	292.880
3495	3496	3554	1	120.000	292.880
3497	3498	3555	1	109.5	0.0
3497	3499	3556	1	120.000	292.880
3494	3500	3557	1	120.000	292.880
3493	3501	3558	1	120.000	292.880
3490	3502	3559	1	120.000	292.880
3503	3504	3560	1	120.000	292.880
3504	3505	3561	1	120.000	292.880
3506	3507	3562	1	123.300	292.880
3507	3508	3563	1	120.000	292.880
3509	3510	3564	1	122.260	502.080
3511	3512	3565	1	120.000	292.880
3512	3513	3566	1	120.000	292.880
3513	3514	3567	1	120.000	292.880
3527	3528	3568	1	120.000	292.880
3528	3529	3569	1	120.000	292.880
3529	3530	3570	1	120.000	292.880
3530	3531	3571	1	120.000	292.880
3527	3532	3572	1	120.000	292.880
3511	3537	3573	1	109.500	292.880
3511	3537	3574	1	109.500	292.880
3538	3539	3575	1	110.700	313.800
3538	3539	3576	1	110.700	313.800
3538	3539	3577	1	110.700	313.800
3538	3540	3578	1	110.700	313.800
3538	3540	3579	1	110.700	313.800
3538	3540	3580	1	110.700	313.800
3509	3541	3581	1	109.500	292.880
3509	3541	3582	1	109.500	292.880
3506	3542	3583	1	120.000	292.880
3503	3543	3584	1	120.000	292.880
3502	3501	3558	1	120.000	292.880
3506	3542	3543	1	120.000	527.184
3491	3490	3502	1	120.000	527.184
3538	3537	3574	1	110.700	313.800
3505	3504	3560	1	120.000	292.880
3542	3543	3584	1	120.000	292.880
3503	3543	3542	1	120.000	527.184
3530	3531	3532	1	120.000	527.184
3545	3485	3546	1	107.800	276.144
3498	3497	3499	1	109.5	0.0
3510	3509	3541	1	124.000	585.760
3538	3541	3581	1	110.700	313.800
3496	3495	3553	1	120.000	292.880
3532	3531	3571	1	120.000	292.880
3579	3540	3580	1	107.800	276.144
3521	3520	3523	1	118.760	505.678
3489	3488	3550	1	109.500	292.880
3489	3488	3549	1	109.500	292.880
3540	3538	3541	1	112.700	488.273
3581	3541	3582	1	107.800	276.144
3527	3532	3531	1	120.000	527.184
3517	3516	3519	1	122.000	669.440
3519	3525	3526	1	111.000	627.600
3508	3507	3562	1	120.000	292.880
3501	3502	3559	1	120.000	292.880
3493	3501	3502	1	120.000	527.184
3530	3529	3569	1	120.000	292.880
3494	3493	3501	1	120.000	527.184
3544	3485	3546	1	107.800	276.144
3513	3512	3565	1	120.000	292.880
3494	3500	3499	1	120.000	527.184
3528	3527	3532	1	120.000	527.184
3520	3519	3525	1	120.000	585.760
3500	3499	3556	1	120.000	292.880
3506	3505	3561	1	120.000	292.880
3534	3533	3536	1	109.100	644.336
3525	3526	3533	1	109.500	418.400
3543	3542	3583	1	120.000	292.880
3576	3539	3577	1	107.800	276.144
3490	3502	3501	1	120.000	527.184
3495	3494	3500	1	120.000	527.184
3538	3537	3573	1	110.700	313.800
3527	3526	3533	1	114.000	527.184
3529	3528	3568	1	120.000	292.880
3525	3526	3527	1	109.500	418.400
3531	3532	3572	1	120.000	292.880
3573	3537	3574	1	107.800	276.144
3492	3491	3551	1	120.000	292.880
3575	3539	3577	1	107.800	276.144
3488	3487	3548	1	110.700	313.800
3512	3511	3537	1	124.000	585.760
3534	3533	3535	1	109.100	644.336
3488	3487	3547	1	110.700	313.800
3575	3539	3576	1	107.800	276.144
3507	3506	3542	1	124.000	585.760
3516	3515	3526	1	124.000	585.760
3504	3503	3543	1	120.000	527.184
3539	3538	3540	1	112.700	488.273
3499	3500	3557	1	120.000	292.880
3515	3526	3525	1	109.500	418.400
3537	3538	3541	1	112.700	488.273
3509	3541	3538	1	111.100	527.184
3549	3488	3550	1	107.800	276.144
3535	3533	3536	1	109.100	644.336
3544	3485	3545	1	107.800	276.144
3497	3496	3554	1	120.000	292.880
3514	3513	3566	1	120.000	292.880
3578	3540	3580	1	107.800	276.144
3547	3487	3548	1	107.800	276.144
3487	3486	3503	1	116.000	418.400
3539	3538	3541	1	112.700	488.273
3511	3510	3564	1	122.260	502.080
3493	3492	3552	1	120.000	292.880
3538	3541	3582	1	110.700	313.800
3578	3540	3579	1	107.800	276.144
3509	3508	3563	1	120.000	292.880
3515	3514	3567	1	123.300	292.880
3531	3530	3570	1	120.000	292.880
3497	3499	3500	1	120.000	527.184
3585	3586	3587	1	107.200	433.462
3586	3587	3588	1	109.470	470.282
3587	3588	3589	1	109.500	418.400
3588	3589	3590	1	111.000	627.600
3589	3590	3591	1	120.000	585.760
3590	3591	3592	1	120.000	527.184
3591	3592	3593	1	120.000	527.184
3592	3593	3594	1	120.000	527.184
3593	3594	3595	1	120.000	527.184
3594	3595	3596	1	120.000	527.184
3595	3596	3597	1	120.000	527.184
3596	3597	3598	1	109.5	0.0
3596	3597	3599	1	120.000	527.184
3593	3594	3600	1	120.000	527.184
3592	3593	3601	1	120.000	527.184
3589	3590	3602	1	120.000	585.760
3585	3586	3603	1	116.000	418.400
3586	3603	3604	1	120.000	585.760
3603	3604	3605	1	120.000	527.184
3604	3605	3606	1	120.000	527.184
3605	3606	3607	1	124.000	585.760
3606	3607	3608	1	117.000	711.280
3607	3608	3609	1	124.000	585.760
3608	3609	3610	1	124.000	585.760
3609	3610	3611	1	124.000	585.760
3610	3611	3612	1	124.000	585.760
3611	3612	3613	1	124.000	585.760
3612	3613	3614	1	124.000	585.760
3613	3614	3615	1	117.000	711.280
3614	3615	3616	1	118.760	505.678
3615	3616	3617	1	124.000	585.760
3616	3617	3618	1	180.000	1255.200
3615	3616	3619	1	117.000	711.280
3616	3619	3620	1	124.000	585.760
3619	3620	3621	1	122.000	669.440
3620	3621	3622	1	180.000	1255.200
3619	3620	3623	1	122.000	669.440
3620	3623	3624	1	180.000	1255.200
3616	3619	3625	1	110.000	585.760
3614	3615	3626	1	124.000	585.760
3615	3626	3627	1	109.500	334.720
3626	3627	3628	1	120.000	585.760
3627	3628	3629	1	120.000	527.184
3628	3629	3630	1	120.000	527.184
3629	3630	3631	1	120.000	527.184
3626	3627	3632	1	120.000	585.760
3615	3626	3633	1	111.100	527.184
3626	3633	3634	1	109.500	418.400
3626	3633	3635	1	109.500	418.400
3626	3633	3636	1	109.500	418.400
3610	3611	3637	1	124.000	585.760
3611	3637	3638	1	111.100	527.184
3637	3638	3639	1	112.700	488.273
3637	3638	3640	1	112.700	488.273
3608	3609	3641	1	124.000	585.760
3605	3606	3642	1	120.000	527.184
3586	3603	3643	1	120.000	585.760
3586	3585	3644	1	109.500	292.880
3586	3585	3645	1	109.500	292.880
3586	3585	3646	1	109.500	292.880
3586	3587	3647	1	109.500	292.880
3586	3587	3648	1	109.500	292.880
3587	3588	3649	1	110.700	313.800
3587	3588	3650	1	110.700	313.800
3590	3591	3651	1	120.000	292.880
3591	3592	3652	1	120.000	292.880
3594	3595	3653	1	120.000	292.880
3595	3596	3654	1	120.000	292.880
3597	3598	3655	1	109.5	0.0
3597	3599	3656	1	120.000	292.880
3594	3600	3657	1	120.000	292.880
3593	3601	3658	1	120.000	292.880
3590	3602	3659	1	120.000	292.880
3603	3604	3660	1	120.000	292.880
3604	3605	3661	1	120.000	292.880
3606	3607	3662	1	123.300	292.880
3607	3608	3663	1	120.000	292.880
3609	3610	3664	1	122.260	502.080
3611	3612	3665	1	120.000	292.880
3612	3613	3666	1	120.000	292.880
3613	3614	3667	1	120.000	292.880
3627	3628	3668	1	120.000	292.880
3628	3629	3669	1	120.000	292.880
3629	3630	3670	1	120.000	292.880
3630	3631	3671	1	120.000	292.880
3627	3632	3672	1	120.000	292.880
3611	3637	3673	1	109.500	292.880
3611	3637	3674	1	109.500	292.880
3638	3639	3675	1	110.700	313.800
3638	3639	3676	1	110.700	313.800
3638	3639	3677	1	110.700	313.800
3638	3640	3678	1	110.700	313.800
3638	3640	3679	1	110.700	313.800
3638	3640	3680	1	110.700	313.800
3609	3641	3681	1	109.500	292.880
3609	3641	3682	1	109.500	292.880
3606	3642	3683	1	120.000	292.880
3603	3643	3684	1	120.000	292.880
3602	3601	3658	1	120.000	292.880
3606	3642	3643	1	120.000	527.184
3591	3590	3602	1	120.000	527.184
3638	3637	3674	1	110.700	313.800
3605	3604	3660	1	120.000	292.880
3642	3643	3684	1	120.000	292.880
3603	3643	3642	1	120.000	527.184
3630	3631	3632	1	120.000	527.184
3645	3585	3646	1	107.800	276.144
3598	3597	3599	1	109.5	0.0
3610	3609	3641	1	124.000	585.760
3638	3641	3681	1	110.700	313.800
3596	3595	3653	1	120.000	292.880
3632	3631	3671	1	120.000	292.880
3679	3640	3680	1	107.800	276.144
3621	3620	3623	1	118.760	505.678
3589	3588	3650	1	109.500	292.880
3589	3588	3649	1	109.500	292.880
3640	3638	3641	1	112.700	488.273
3681	3641	3682	1	107.800	276.144
3627	3632	3631	1	120.000	527.184
3617	3616	3619	1	122.000	669.440
3619	3625	3626	1	111.000	627.600
3608	3607	3662	1	120.000	292.880
3601	3602	3659	1	120.000	292.880
3593	3601	3602	1	120.000	527.184
3630	3629	3669	1	120.000	292.880
3594	3593	3601	1	120.000	527.184
3644	3585	3646	1	107.800	276.144
3613	3612	3665	1	120.000	292.880
3594	3600	3599	1	120.000	527.184
3628	3627	3632	1	120.000	527.184
3620	3619	3625	1	120.000	585.760
3600	3599	3656	1	120.000	292.880
3606	3605	3661	1	120.000	292.880
3634	3633	3636	1	109.100	644.336
3625	3626	3633	1	109.500	418.400
3643	3642	3683	1	120.000	292.880
3676	3639	3677	1	107.800	276.144
3590	3602	3601	1	120.000	527.184
3595	3594	3600	1	120.000	527.184
3638	3637	3673	1	110.700	313.800
3627	3626	3633	1	114.000	527.184
3629	3628	3668	1	120.000	292.880
3625	3626	3627	1	109.500	418.400
3631	3632	3672	1	120.000	292.880
3673	3637	3674	1	107.800	276.144
3592	3591	3651	1	120.000	292.880
3675	3639	3677	1	107.800	276.144
3588	3587	3648	1	110.700	313.800
3612	3611	3637	1	124.000	585.760
3634	3633	3635	1	109.100	644.336
3588	3587	3647	1	110.700	313.800
3675	3639	3676	1	107.800	276.144
3607	3606	3642	1	124.000	585.760
3616	3615	3626	1	124.000	585.760
3604	3603	3643	1	120.000	527.184
3639	3638	3640	1	112.700	488.273
3599	3600	3657	1	120.000	292.880
3615	3626	3625	1	109.500	418.400
3637	3638	3641	1	112.700	488.273
3609	3641	3638	1	111.100	527.184
3649	3588	3650	1	107.800	276.144
3635	3633	3636	1	109.100	644.336
3644	3585	3645	1	107.800	276.144
3597	3596	3654	1	120.000	292.880
3614	3613	3666	1	120.000	292.880
3678	3640	3680	1	107.800	276.144
3647	3587	3648	1	107.800	276.144
3587	3586	3603	1	116.000	418.400
3639	3638	3641	1	112.700	488.273
3611	3610	3664	1	122.260	502.080
3593	3592	3652	1	120.000	292.880
3638	3641	3682	1	110.700	313.800
3678	3640	3679	1	107.800	276.144
3609	3608	3663	1	120.000	292.880
3615	3614	3667	1	123.300	292.880
3631	3630	3670	1	120.000	292.880
3597	3599	3600	1	120.000	527.184
3685	3686	3687	1	107.200	433.462
3686	3687	3688	1	109.470	470.282
3687	3688	3689	1	109.500	418.400
3688	3689	3690	1	111.000	627.600
3689	3690	3691	1	120.000	585.760
3690	3691	3692	1	120.000	527.184
3691	3692	3693	1	120.000	527.184
3692	3693	3694	1	120.000	527.184
3693	3694	3695	1	120.000	527.184
3694	3695	3696	1	120.000	527.184
3695	3696	3697	1	120.000	527.184
3696	3697	3698	1	109.5	0.0
3696	3697	3699	1	120.000	527.184
3693	3694	3700	1	120.000	527.184
3692	3693	3701	1	120.000	527.184
3689	3690	3702	1	120.000	585.760
3685	3686	3703	1	116.000	418.400
3686	3703	3704	1	120.000	585.760
3703	3704	3705	1	120.000	527.184
3704	3705	3706	1	120.000	527.184
3705	3706	3707	1	124.000	585.760
3706	3707	3708	1	117.000	711.280
3707	3708	3709	1	124.000	585.760
3708	3709	3710	1	124.000	585.760
3709	3710	3711	1	124.000	585.760
3710	3711	3712	1	124.000	585.760
3711	3712	3713	1	124.000	585.760
3712	3713	3714	1	124.000	585.760
3713	3714	3715	1	117.000	711.280
3714	3715	3716	1	118.760	505.678
3715	3716	3717	1	124.000	585.760
3716	3717	3718	1	180.000	1255.200
3715	3716	3719	1	117.000	711.280
3716	3719	3720	1	124.000	585.760
3719	3720	3721	1	122.000	669.440
3720	3721	3722	1	180.000	1255.200
3719	3720	3723	1	122.000	669.440
3720	3723	3724	1	180.000	1255.200
3716	3719	3725	1	110.000	585.760
3714	3715	3726	1	124.000	585.760
3715	3726	3727	1	109.500	334.720
3726	3727	3728	1	120.000	585.760
3727	3728	3729	1	120.000	527.184
3728	3729	3730	1	120.000	527.184
3729	3730	3731	1	120.000	527.184
3726	3727	3732	1	120.000	585.760
3715	3726	3733	1	111.100	527.184
3726	3733	3734	1	109.500	418.400
3726	3733	3735	1	109.500	418.400
3726	3733	3736	1	109.500	418.400
3710	3711	3737	1	124.000	585.760
3711	3737	3738	1	111.100	527.184
3737	3738	3739	1	112.700	488.273
3737	3738	3740	1	112.700	488.273
3708	3709	3741	1	124.000	585.760
3705	3706	3742	1	120.000	527.184
3686	3703	3743	1	120.000	585.760
3686	3685	3744	1	109.500	292.880
3686	3685	3745	1	109.500	292.880
3686	3685	3746	1	109.500	292.880
3686	3687	3747	1	109.500	292.880
3686	3687	3748	1	109.500	292.880
3687	3688	3749	1	110.700	313.800
3687	3688	3750	1	110.700	313.800
3690	3691	3751	1	120.000	292.880
3691	3692	3752	1	120.000	292.880
3694	3695	3753	1	120.000	292.880
3695	3696	3754	1	120.000	292.880
3697	3698	3755	1	109.5	0.0
3697	3699	3756	1	120.000	292.880
3694	3700	3757	1	120.000	292.880
3693	3701	3758	1	120.000	292.880
3690	3702	3759	1	120.000	292.880
3703	3704	3760	1	120.000	292.880
3704	3705	3761	1	120.000	292.880
3706	3707	3762	1	123.300	292.880
3707	3708	3763	1	120.000	292.880
3709	3710	3764	1	122.260	502.080
3711	3712	3765	1	120.000	292.880
3712	3713	3766	1	120.000	292.880
3713	3714	3767	1	120.000	292.880
3727	3728	3768	1	120.000	292.880
3728	3729	3769	1	120.000	292.880
3729	3730	3770	1	120.000	292.880
3730	3731	3771	1	120.000	292.880
3727	3732	3772	1	120.000	292.880
3711	3737	3773	1	109.500	292.880
3711	3737	3774	1	109.500	292.880
3738	3739	3775	1	110.700	313.800
3738	3739	3776	1	110.700	313.800
3738	3739	3777	1	110.700	313.800
3738	3740	3778	1	110.700	313.800
3738	3740	3779	1	110.700	313.800
3738	3740	3780	1	110.700	313.800
3709	3741	3781	1	109.500	292.880
3709	3741	3782	1	109.500	292.880
3706	3742	3783	1	120.000	292.880
3703	3743	3784	1	120.000	292.880
3702	3701	3758	1	120.000	292.880
3706	3742	3743	1	120.000	527.184
3691	3690	3702	1	120.000	527.184
3738	3737	3774	1	110.700	313.800
3705	3704	3760	1	120.000	292.880
3742	3743	3784	1	120.000	292.880
3703	3743	3742	1	120.000	527.184
3730	3731	3732	1	120.000	527.184
3745	3685	3746	1	107.800	276.144
3698	3697	3699	1	109.5	0.0
3710	3709	3741	1	124.000	585.760
3738	3741	3781	1	110.700	313.800
3696	3695	3753	1	120.000	292.880
3732	3731	3771	1	120.000	292.880
3779	3740	3780	1	107.800	276.144
3721	3720	3723	1	118.760	505.678
3689	3688	3750	1	109.500	292.880
3689	3688	3749	1	109.500	292.880
3740	3738	3741	1	112.700	488.273
3781	3741	3782	1	107.800	276.144
3727	3732	3731	1	120.000	527.184
3717	3716	3719	1	122.000	669.440
3719	3725	3726	1	111.000	627.600
3708	3707	3762	1	120.000	292.880
3701	3702	3759	1	120.000	292.880
3693	3701	3702	1	120.000	527.184
3730	3729	3769	1	120.000	292.880
3694	3693	3701	1	120.000	527.184
3744	3685	3746	1	107.800	276.144
3713	3712	3765	1	120.000	292.880
3694	3700	3699	1	120.000	527.184
3728	3727	3732	1	120.000	527.184
3720	3719	3725	1	120.000	585.760
3700	3699	3756	1	120.000	292.880
3706	3705	3761	1	120.000	292.880
3734	3733	3736	1	109.100	644.336
3725	3726	3733	1	109.500	418.400
3743	3742	3783	1	120.000	292.880
3776	3739	3777	1	107.800	276.144
3690	3702	3701	1	120.000	527.184
3695	3694	3700	1	120.000	527.184
3738	3737	3773	1	110.700	313.800
3727	3726	3733	1	114.000	527.184
3729	3728	3768	1	120.000	292.880
3725	3726	3727	1	109.500	418.400
3731	3732	3772	1	120.000	292.880
3773	3737	3774	1	107.800	276.144
3692	3691	3751	1	120.000	292.880
3775	3739	3777	1	107.800	276.144
3688	3687	3748	1	110.700	313.800
3712	3711	3737	1	124.000	585.760
3734	3733	3735	1	109.100	644.336
3688	3687	3747	1	110.700	313.800
3775	3739	3776	1	107.800	276.144
3707	3706	3742	1	124.000	585.760
3716	3715	3726	1	124.000	585.760
3704	3703	3743	1	120.000	527.184
3739	3738	3740	1	112.700	488.273
3699	3700	3757	1	120.000	292.880
3715	3726	3725	1	109.500	418.400
3737	3738	3741	1	112.700	488.273
3709	3741	3738	1	111.100	527.184
3749	3688	3750	1	107.800	276.144
3735	3733	3736	1	109.100	644.336
3744	3685	3745	1	107.800	276.144
3697	3696	3754	1	120.000	292.880
3714	3713	3766	1	120.000	292.880
3778	3740	3780	1	107.800	276.144
3747	3687	3748	1	107.800	276.144
3687	3686	3703	1	116.000	418.400
3739	3738	3741	1	112.700	488.273
3711	3710	3764	1	122.260	502.080
3693	3692	3752	1	120.000	292.880
3738	3741	3782	1	110.700	313.800
3778	3740	3779	1	107.800	276.144
3709	3708	3763	1	120.000	292.880
3715	3714	3767	1	123.300	292.880
3731	3730	3770	1	120.000	292.880
3697	3699	3700	1	120.000	527.184
3785	3786	3787	1	107.200	433.462
3786	3787	3788	1	109.470	470.282
3787	3788	3789	1	109.500	418.400
3788	3789	3790	1	111.000	627.600
3789	3790	3791	1	120.000	585.760
3790	3791	3792	1	120.000	527.184
3791	3792	3793	1	120.000	527.184
3792	3793	3794	1	120.000	527.184
3793	3794	3795	1	120.000	527.184
3794	3795	3796	1	120.000	527.184
3795	3796	3797	1	120.000	527.184
3796	3797	3798	1	109.5	0.0
3796	3797	3799	1	120.000	527.184
3793	3794	3800	1	120.000	527.184
3792	3793	3801	1	120.000	527.184
3789	3790	3802	1	120.000	585.760
3785	3786	3803	1	116.000	418.400
3786	3803	3804	1	120.000	585.760
3803	3804	3805	1	120.000	527.184
3804	3805	3806	1	120.000	527.184
3805	3806	3807	1	124.000	585.760
3806	3807	3808	1	117.000	711.280
3807	3808	3809	1	124.000	585.760
3808	3809	3810	1	124.000	585.760
3809	3810	3811	1	124.000	585.760
3810	3811	3812	1	124.000	585.760
3811	3812	3813	1	124.000	585.760
3812	3813	3814	1	124.000	585.760
3813	3814	3815	1	117.000	711.280
3814	3815	3816	1	118.760	505.678
3815	3816	3817	1	124.000	585.760
3816	3817	3818	1	180.000	1255.200
3815	3816	3819	1	117.000	711.280
3816	3819	3820	1	124.000	585.760
3819	3820	3821	1	122.000	669.440
3820	3821	3822	1	180.000	1255.200
3819	3820	3823	1	122.000	669.440
3820	3823	3824	1	180.000	1255.200
3816	3819	3825	1	110.000	585.760
3814	3815	3826	1	124.000	585.760
3815	3826	3827	1	109.500	334.720
3826	3827	3828	1	120.000	585.760
3827	3828	3829	1	120.000	527.184
3828	3829	3830	1	120.000	527.184
3829	3830	3831	1	120.000	527.184
3826	3827	3832	1	120.000	585.760
3815	3826	3833	1	111.100	527.184
3826	3833	3834	1	109.500	418.400
3826	3833	3835	1	109.500	418.400
3826	3833	3836	1	109.500	418.400
3810	3811	3837	1	124.000	585.760
3811	3837	3838	1	111.100	527.184
3837	3838	3839	1	112.700	488.273
3837	3838	3840	1	112.700	488.273
3808	3809	3841	1	124.000	585.760
3805	3806	3842	1	120.000	527.184
3786	3803	3843	1	120.000	585.760
3786	3785	3844	1	109.500	292.880
3786	3785	3845	1	109.500	292.880
3786	3785	3846	1	109.500	292.880
3786	3787	3847	1	109.500	292.880
3786	3787	3848	1	109.500	292.880
3787	3788	3849	1	110.700	313.800
3787	3788	3850	1	110.700	313.800
3790	3791	3851	1	120.000	292.880
3791	3792	3852	1	120.000	292.880
3794	3795	3853	1	120.000	292.880
3795	3796	3854	1	120.000	292.880
3797	3798	3855	1	109.5	0.0
3797	3799	3856	1	120.000	292.880
3794	3800	3857	1	120.000	292.880
3793	3801	3858	1	120.000	292.880
3790	3802	3859	1	120.000	292.880
3803	3804	3860	1	120.000	292.880
3804	3805	3861	1	120.000	292.880
3806	3807	3862	1	123.300	292.880
3807	3808	3863	1	120.000	292.880
3809	3810	3864	1	122.260	502.080
3811	3812	3865	1	120.000	292.880
3812	3813	3866	1	120.000	292.880
3813	3814	3867	1	120.000	292.880
3827	3828	3868	1	120.000	292.880
3828	3829	3869	1	120.000	292.880
3829	3830	3870	1	120.000	292.880
3830	3831	3871	1	120.000	292.880
3827	3832	3872	1	120.000	292.880
3811	3837	3873	1	109.500	292.880
3811	3837	3874	1	109.500	292.880
3838	3839	3875	1	110.700	313.800
3838	3839	3876	1	110.700	313.800
3838	3839	3877	1	110.700	313.800
3838	3840	3878	1	110.700	313.800
3838	3840	3879	1	110.700	313.800
3838	3840	3880	1	110.700	313.800
3809	3841	3881	1	109.500	292.880
3809	3841	3882	1	109.500	292.880
3806	3842	3883	1	120.000	292.880
3803	3843	3884	1	120.000	292.880
3802	3801	3858	1	120.000	292.880
3806	3842	3843	1	120.000	527.184
3791	3790	3802	1	120.000	527.184
3838	3837	3874	1	110.700	313.800
3805	3804	3860	1	120.000	292.880
3842	3843	3884	1	120.000	292.880
3803	3843	3842	1	120.000	527.184
3830	3831	3832	1	120.000	527.184
3845	3785	3846	1	107.800	276.144
3798	3797	3799	1	109.5	0.0
3810	3809	3841	1	124.000	585.760
3838	3841	3881	1	110.700	313.800
3796	3795	3853	1	120.000	292.880
3832	3831	3871	1	120.000	292.880
3879	3840	3880	1	107.800	276.144
3821	3820	3823	1	118.760	505.678
3789	3788	3850	1	109.500	292.880
3789	3788	3849	1	109.500	292.880
3840	3838	3841	1	112.700	488.273
3881	3841	3882	1	107.800	276.144
3827	3832	3831	1	120.000	527.184
3817	3816	3819	1	122.000	669.440
3819	3825	3826	1	111.000	627.600
3808	3807	3862	1	120.000	292.880
3801	3802	3859	1	120.000	292.880
3793	3801	3802	1	120.000	527.184
3830	3829	3869	1	120.000	292.880
3794	3793	3801	1	120.000	527.184
3844	3785	3846	1	107.800	276.144
3813	3812	3865	1	120.000	292.880
3794	3800	3799	1	120.000	527.184
3828	3827	3832	1	120.000	527.184
3820	3819	3825	1	120.000	585.760
3800	3799	3856	1	120.000	292.880
3806	3805	3861	1	120.000	292.880
3834	3833	3836	1	109.100	644.336
3825	3826	3833	1	109.500	418.400
3843	3842	3883	1	120.000	292.880
3876	3839	3877	1	107.800	276.144
3790	3802	3801	1	120.000	527.184
3795	3794	3800	1	120.000	527.184
3838	3837	3873	1	110.700	313.800
3827	3826	3833	1	114.000	527.184
3829	3828	3868	1	120.000	292.880
3825	3826	3827	1	109.500	418.400
3831	3832	3872	1	120.000	292.880
3873	3837	3874	1	107.800	276.144
3792	3791	3851	1	120.000	292.880
3875	3839	3877	1	107.800	276.144
3788	3787	3848	1	110.700	313.800
3812	3811	3837	1	124.000	585.760
3834	3833	3835	1	109.100	644.336
3788	3787	3847	1	110.700	313.800
3875	3839	3876	1	107.800	276.144
3807	3806	3842	1	124.000	585.760
3816	3815	3826	1	124.000	585.760
3804	3803	3843	1	120.000	527.184
3839	3838	3840	1	112.700	488.273
3799	3800	3857	1	120.000	292.880
3815	3826	3825	1	109.500	418.400
3837	3838	3841	1	112.700	488.273
3809	3841	3838	1	111.100	527.184
3849	3788	3850	1	107.800	276.144
3835	3833	3836	1	109.100	644.336
3844	3785	3845	1	107.800	276.144
3797	3796	3854	1	120.000	292.880
3814	3813	3866	1	120.000	292.880
3878	3840	3880	1	107.800	276.144
3847	3787	3848	1	107.800	276.144
3787	3786	3803	1	116.000	418.400
3839	3838	3841	1	112.700	488.273
3811	3810	3864	1	122.260	502.080
3793	3792	3852	1	120.000	292.880
3838	3841	3882	1	110.700	313.800
3878	3840	3879	1	107.800	276.144
3809	3808	3863	1	120.000	292.880
3815	3814	3867	1	123.300	292.880
3831	3830	3870	1	120.000	292.880
3797	3799	3800	1	120.000	527.184
3885	3886	3887	1	107.200	433.462
3886	3887	3888	1	109.470	470.282
3887	3888	3889	1	109.500	418.400
3888	3889	3890	1	111.000	627.600
3889	3890	3891	1	120.000	585.760
3890	3891	3892	1	120.000	527.184
3891	3892	3893	1	120.000	527.184
3892	3893	3894	1	120.000	527.184
3893	3894	3895	1	120.000	527.184
3894	3895	3896	1	120.000	527.184
3895	3896	3897	1	120.000	527.184
3896	3897	3898	1	109.5	0.0
3896	3897	3899	1	120.000	527.184
3893	3894	3900	1	120.000	527.184
3892	3893	3901	1	120.000	527.184
3889	3890	3902	1	120.000	585.760
3885	3886	3903	1	116.000	418.400
3886	3903	3904	1	120.000	585.760
3903	3904	3905	1	120.000	527.184
3904	3905	3906	1	120.000	527.184
3905	3906	3907	1	124.000	585.760
3906	3907	3908	1	117.000	711.280
3907	3908	3909	1	124.000	585.760
3908	3909	3910	1	124.000	585.760
3909	3910	3911	1	124.000	585.760
3910	3911	3912	1	124.000	585.760
3911	3912	3913	1	124.000	585.760
3912	3913	3914	1	124.000	585.760
3913	3914	3915	1	117.000	711.280
3914	3915	3916	1	118.760	505.678
3915	3916	3917	1	124.000	585.760
3916	3917	3918	1	180.000	1255.200
3915	3916	3919	1	117.000	711.280
3916	3919	3920	1	124.000	585.760
3919	3920	3921	1	122.000	669.440
3920	3921	3922	1	180.000	1255.200
3919	3920	3923	1	122.000	669.440
3920	3923	3924	1	180.000	1255.200
3916	3919	3925	1	110.000	585.760
3914	3915	3926	1	124.000	585.760
3915	3926	3927	1	109.500	334.720
3926	3927	3928	1	120.000	585.760
3927	3928	3929	1	120.000	527.184
3928	3929	3930	1	120.000	527.184
3929	3930	3931	1	120.000	527.184
3926	3927	3932	1	120.000	585.760
3915	3926	3933	1	111.100	527.184
3926	3933	3934	1	109.500	418.400
3926	3933	3935	1	109.500	418.400
3926	3933	3936	1	109.500	418.400
3910	3911	3937	1	124.000	585.760
3911	3937	3938	1	111.100	527.184
3937	3938	3939	1	112.700	488.273
3937	3938	3940	1	112.700	488.273
3908	3909	3941	1	124.000	585.760
3905	3906	3942	1	120.000	527.184
3886	3903	3943	1	120.000	585.760
3886	3885	3944	1	109.500	292.880
3886	3885	3945	1	109.500	292.880
3886	3885	3946	1	109.500	292.880
3886	3887	3947	1	109.500	292.880
3886	3887	3948	1	109.500	292.880
3887	3888	3949	1	110.700	313.800
3887	3888	3950	1	110.700	313.800
3890	3891	3951	1	120.000	292.880
3891	3892	3952	1	120.000	292.880
3894	3895	3953	1	120.000	292.880
3895	3896	3954	1	120.000	292.880
3897	3898	3955	1	109.5	0.0
3897	3899	3956	1	120.000	292.880
3894	3900	3957	1	120.000	292.880
3893	3901	3958	1	120.000	292.880
3890	3902	3959	1	120.000	292.880
3903	3904	3960	1	120.000	292.880
3904	3905	3961	1	120.000	292.880
3906	3907	3962	1	123.300	292.880
3907	3908	3963	1	120.000	292.880
3909	3910	3964	1	122.260	502.080
3911	3912	3965	1	120.000	292.880
3912	3913	3966	1	120.000	292.880
3913	3914	3967	1	120.000	292.880
3927	3928	3968	1	120.000	292.880
3928	3929	3969	1	120.000	292.880
3929	3930	3970	1	120.000	292.880
3930	3931	3971	1	120.000	292.880
3927	3932	3972	1	120.000	292.880
3911	3937	3973	1	109.500	292.880
3911	3937	3974	1	109.500	292.880
3938	3939	3975	1	110.700	313.800
3938	3939	3976	1	110.700	313.800
3938	3939	3977	1	110.700	313.800
3938	3940	3978	1	110.700	313.800
3938	3940	3979	1	110.700	313.800
3938	3940	3980	1	110.700	313.800
3909	3941	3981	1	109.500	292.880
3909	3941	3982	1	109.500	292.880
3906	3942	3983	1	120.000	292.880
3903	3943	3984	1	120.000	292.880
3902	3901	3958	1	120.000	292.880
3906	3942	3943	1	120.000	527.184
3891	3890	3902	1	120.000	527.184
3938	3937	3974	1	110.700	313.800
3905	3904	3960	1	120.000	292.880
3942	3943	3984	1	120.000	292.880
3903	3943	3942	1	120.000	527.184
3930	3931	3932	1	120.000	527.184
3945	3885	3946	1	107.800	276.144
3898	3897	3899	1	109.5	0.0
3910	3909	3941	1	124.000	585.760
3938	3941	3981	1	110.700	313.800
3896	3895	3953	1	120.000	292.880
3932	3931	3971	1	120.000	292.880
3979	3940	3980	1	107.800	276.144
3921	3920	3923	1	118.760	505.678
3889	3888	3950	1	109.500	292.880
3889	3888	3949	1	109.500	292.880
3940	3938	3941	1	112.700	488.273
3981	3941	3982	1	107.800	276.144
3927	3932	3931	1	120.000	527.184
3917	3916	3919	1	122.000	669.440
3919	3925	3926	1	111.000	627.600
3908	3907	3962	1	120.000	292.880
3901	3902	3959	1	120.000	292.880
3893	3901	3902	1	120.000	527.184
3930	3929	3969	1	120.000	292.880
3894	3893	3901	1	120.000	527.184
3944	3885	3946	1	107.800	276.144
3913	3912	3965	1	120.000	292.880
3894	3900	3899	1	120.000	527.184
3928	3927	3932	1	120.000	527.184
3920	3919	3925	1	120.000	585.760
3900	3899	3956	1	120.000	292.880
3906	3905	3961	1	120.000	292.880
3934	3933	3936	1	109.100	644.336
3925	3926	3933	1	109.500	418.400
3943	3942	3983	1	120.000	292.880
3976	3939	3977	1	107.800	276.144
3890	3902	3901	1	120.000	527.184
3895	3894	3900	1	120.000	527.184
3938	3937	3973	1	110.700	313.800
3927	3926	3933	1	114.000	527.184
3929	3928	3968	1	120.000	292.880
3925	3926	3927	1	109.500	418.400
3931	3932	3972	1	120.000	292.880
3973	3937	3974	1	107.800	276.144
3892	3891	3951	1	120.000	292.880
3975	3939	3977	1	107.800	276.144
3888	3887	3948	1	110.700	313.800
3912	3911	3937	1	124.000	585.760
3934	3933	3935	1	109.100	644.336
3888	3887	3947	1	110.700	313.800
3975	3939	3976	1	107.800	276.144
3907	3906	3942	1	124.000	585.760
3916	3915	3926	1	124.000	585.760
3904	3903	3943	1	120.000	527.184
3939	3938	3940	1	112.700	488.273
3899	3900	3957	1	120.000	292.880
3915	3926	3925	1	109.500	418.400
3937	3938	3941	1	112.700	488.273
3909	3941	3938	1	111.100	527.184
3949	3888	3950	1	107.800	276.144
3935	3933	3936	1	109.100	644.336
3944	3885	3945	1	107.800	276.144
3897	3896	3954	1	120.000	292.880
3914	3913	3966	1	120.000	292.880
3978	3940	3980	1	107.800	276.144
3947	3887	3948	1	107.800	276.144
3887	3886	3903	1	116.000	418.400
3939	3938	3941	1	112.700	488.273
3911	3910	3964	1	122.260	502.080
3893	3892	3952	1	120.000	292.880
3938	3941	3982	1	110.700	313.800
3978	3940	3979	1	107.800	276.144
3909	3908	3963	1	120.000	292.880
3915	3914	3967	1	123.300	292.880
3931	3930	3970	1	120.000	292.880
3897	3899	3900	1	120.000	527.184
3985	3986	3987	1	107.200	433.462
3986	3987	3988	1	109.470	470.282
3987	3988	3989	1	109.500	418.400
3988	3989	3990	1	111.000	627.600
3989	3990	3991	1	120.000	585.760
3990	3991	3992	1	120.000	527.184
3991	3992	3993	1	120.000	527.184
3992	3993	3994	1	120.000	527.184
3993	3994	3995	1	120.000	527.184
3994	3995	3996	1	120.000	527.184
3995	3996	3997	1	120.000	527.184
3996	3997	3998	1	109.5	0.0
3996	3997	3999	1	120.000	527.184
3993	3994	4000	1	120.000	527.184
3992	3993	4001	1	120.000	527.184
3989	3990	4002	1	120.000	585.760
3985	3986	4003	1	116.000	418.400
3986	4003	4004	1	120.000	585.760
4003	4004	4005	1	120.000	527.184
4004	4005	4006	1	120.000	527.184
4005	4006	4007	1	124.000	585.760
4006	4007	4008	1	117.000	711.280
4007	4008	4009	1	124.000	585.760
4008	4009	4010	1	124.000	585.760
4009	4010	4011	1	124.000	585.760
4010	4011	4012	1	124.000	585.760
4011	4012	4013	1	124.000	585.760
4012	4013	4014	1	124.000	585.760
4013	4014	4015	1	117.000	711.280
4014	4015	4016	1	118.760	505.678
4015	4016	4017	1	124.000	585.760
4016	4017	4018	1	180.000	1255.200
4015	4016	4019	1	117.000	711.280
4016	4019	4020	1	124.000	585.760
4019	4020	4021	1	122.000	669.440
4020	4021	4022	1	180.000	1255.200
4019	4020	4023	1	122.000	669.440
4020	4023	4024	1	180.000	1255.200
4016	4019	4025	1	110.000	585.760
4014	4015	4026	1	124.000	585.760
4015	4026	4027	1	109.500	334.720
4026	4027	4028	1	120.000	585.760
4027	4028	4029	1	120.000	527.184
4028	4029	4030	1	120.000	527.184
4029	4030	4031	1	120.000	527.184
4026	4027	4032	1	120.000	585.760
4015	4026	4033	1	111.100	527.184
4026	4033	4034	1	109.500	418.400
4026	4033	4035	1	109.500	418.400
4026	4033	4036	1	109.500	418.400
4010	4011	4037	1	124.000	585.760
4011	4037	4038	1	111.100	527.184
4037	4038	4039	1	112.700	488.273
4037	4038	4040	1	112.700	488.273
4008	4009	4041	1	124.000	585.760
4005	4006	4042	1	120.000	527.184
3986	4003	4043	1	120.000	585.760
3986	3985	4044	1	109.500	292.880
3986	3985	4045	1	109.500	292.880
3986	3985	4046	1	109.500	292.880
3986	3987	4047	1	109.500	292.880
3986	3987	4048	1	109.500	292.880
3987	3988	4049	1	110.700	313.800
3987	3988	4050	1	110.700	313.800
3990	3991	4051	1	120.000	292.880
3991	3992	4052	1	120.000	292.880
3994	3995	4053	1	120.000	292.880
3995	3996	4054	1	120.000	292.880
3997	3998	4055	1	109.5	0.0
3997	3999	4056	1	120.000	292.880
3994	4000	4057	1	120.000	292.880
3993	4001	4058	1	120.000	292.880
3990	4002	4059	1	120.000	292.880
4003	4004	4060	1	120.000	292.880
4004	4005	4061	1	120.000	292.880
4006	4007	4062	1	123.300	292.880
4007	4008	4063	1	120.000	292.880
4009	4010	4064	1	122.260	502.080
4011	4012	4065	1	120.000	292.880
4012	4013	4066	1	120.000	292.880
4013	4014	4067	1	120.000	292.880
4027	4028	4068	1	120.000	292.880
4028	4029	4069	1	120.000	292.880
4029	4030	4070	1	120.000	292.880
4030	4031	4071	1	120.000	292.880
4027	4032	4072	1	120.000	292.880
4011	4037	4073	1	109.500	292.880
4011	4037	4074	1	109.500	292.880
4038	4039	4075	1	110.700	313.800
4038	4039	4076	1	110.700	313.800
4038	4039	4077	1	110.700	313.800
4038	4040	4078	1	110.700	313.800
4038	4040	4079	1	110.700	313.800
4038	4040	4080	1	110.700	313.800
4009	4041	4081	1	109.500	292.880
4009	4041	4082	1	109.500	292.880
4006	4042	4083	1	120.000	292.880
4003	4043	4084	1	120.000	292.880
4002	4001	4058	1	120.000	292.880
4006	4042	4043	1	120.000	527.184
3991	3990	4002	1	120.000	527.184
4038	4037	4074	1	110.700	313.800
4005	4004	4060	1	120.000	292.880
4042	4043	4084	1	120.000	292.880
4003	4043	4042	1	120.000	527.184
4030	4031	4032	1	120.000	527.184
4045	3985	4046	1	107.800	276.144
3998	3997	3999	1	109.5	0.0
4010	4009	4041	1	124.000	585.760
4038	4041	4081	1	110.700	313.800
3996	3995	4053	1	120.000	292.880
4032	4031	4071	1	120.000	292.880
4079	4040	4080	1	107.800	276.144
4021	4020	4023	1	118.760	505.678
3989	3988	4050	1	109.500	292.880
3989	3988	4049	1	109.500	292.880
4040	4038	4041	1	112.700	488.273
4081	4041	4082	1	107.800	276.144
4027	4032	4031	1	120.000	527.184
4017	4016	4019	1	122.000	669.440
4019	4025	4026	1	111.000	627.600
4008	4007	4062	1	120.000	292.880
4001	4002	4059	1	120.000	292.880
3993	4001	4002	1	120.000	527.184
4030	4029	4069	1	120.000	292.880
3994	3993	4001	1	120.000	527.184
4044	3985	4046	1	107.800	276.144
4013	4012	4065	1	120.000	292.880
3994	4000	3999	1	120.000	527.184
4028	4027	4032	1	120.000	527.184
4020	4019	4025	1	120.000	585.760
4000	3999	4056	1	120.000	292.880
4006	4005	4061	1	120.000	292.880
4034	4033	4036	1	109.100	644.336
4025	4026	4033	1	109.500	418.400
4043	4042	4083	1	120.000	292.880
4076	4039	4077	1	107.800	276.144
3990	4002	4001	1	120.000	527.184
3995	3994	4000	1	120.000	527.184
4038	4037	4073	1	110.700	313.800
4027	4026	4033	1	114.000	527.184
4029	4028	4068	1	120.000	292.880
4025	4026	4027	1	109.500	418.400
4031	4032	4072	1	120.000	292.880
4073	4037	4074	1	107.800	276.144
3992	3991	4051	1	120.000	292.880
4075	4039	4077	1	107.800	276.144
3988	3987	4048	1	110.700	313.800
4012	4011	4037	1	124.000	585.760
4034	4033	4035	1	109.100	644.336
3988	3987	4047	1	110.700	313.800
4075	4039	4076	1	107.800	276.144
4007	4006	4042	1	124.000	585.760
4016	4015	4026	1	124.000	585.760
4004	4003	4043	1	120.000	527.184
4039	4038	4040	1	112.700	488.273
3999	4000	4057	1	120.000	292.880
4015	4026	4025	1	109.500	418.400
4037	4038	4041	1	112.700	488.273
4009	4041	4038	1	111.100	527.184
4049	3988	4050	1	107.800	276.144
4035	4033	4036	1	109.100	644.336
4044	3985	4045	1	107.800	276.144
3997	3996	4054	1	120.000	292.880
4014	4013	4066	1	120.000	292.880
4078	4040	4080	1	107.800	276.144
4047	3987	4048	1	107.800	276.144
3987	3986	4003	1	116.000	418.400
4039	4038	4041	1	112.700	488.273
4011	4010	4064	1	122.260	502.080
3993	3992	4052	1	120.000	292.880
4038	4041	4082	1	110.700	313.800
4078	4040	4079	1	107.800	276.144
4009	4008	4063	1	120.000	292.880
4015	4014	4067	1	123.300	292.880
4031	4030	4070	1	120.000	292.880
3997	3999	4000	1	120.000	527.184
4085	4086	4087	1	107.200	433.462
4086	4087	4088	1	109.470	470.282
4087	4088	4089	1	109.500	418.400
4088	4089	4090	1	111.000	627.600
4089	4090	4091	1	120.000	585.760
4090	4091	4092	1	120.000	527.184
4091	4092	4093	1	120.000	527.184
4092	4093	4094	1	120.000	527.184
4093	4094	4095	1	120.000	527.184
4094	4095	4096	1	120.000	527.184
4095	4096	4097	1	120.000	527.184
4096	4097	4098	1	109.5	0.0
4096	4097	4099	1	120.000	527.184
4093	4094	4100	1	120.000	527.184
4092	4093	4101	1	120.000	527.184
4089	4090	4102	1	120.000	585.760
4085	4086	4103	1	116.000	418.400
4086	4103	4104	1	120.000	585.760
4103	4104	4105	1	120.000	527.184
4104	4105	4106	1	120.000	527.184
4105	4106	4107	1	124.000	585.760
4106	4107	4108	1	117.000	711.280
4107	4108	4109	1	124.000	585.760
4108	4109	4110	1	124.000	585.760
4109	4110	4111	1	124.000	585.760
4110	4111	4112	1	124.000	585.760
4111	4112	4113	1	124.000	585.760
4112	4113	4114	1	124.000	585.760
4113	4114	4115	1	117.000	711.280
4114	4115	4116	1	118.760	505.678
4115	4116	4117	1	124.000	585.760
4116	4117	4118	1	180.000	1255.200
4115	4116	4119	1	117.000	711.280
4116	4119	4120	1	124.000	585.760
4119	4120	4121	1	122.000	669.440
4120	4121	4122	1	180.000	1255.200
4119	4120	4123	1	122.000	669.440
4120	4123	4124	1	180.000	1255.200
4116	4119	4125	1	110.000	585.760
4114	4115	4126	1	124.000	585.760
4115	4126	4127	1	109.500	334.720
4126	4127	4128	1	120.000	585.760
4127	4128	4129	1	120.000	527.184
4128	4129	4130	1	120.000	527.184
4129	4130	4131	1	120.000	527.184
4126	4127	4132	1	120.000	585.760
4115	4126	4133	1	111.100	527.184
4126	4133	4134	1	109.500	418.400
4126	4133	4135	1	109.500	418.400
4126	4133	4136	1	109.500	418.400
4110	4111	4137	1	124.000	585.760
4111	4137	4138	1	111.100	527.184
4137	4138	4139	1	112.700	488.273
4137	4138	4140	1	112.700	488.273
4108	4109	4141	1	124.000	585.760
4105	4106	4142	1	120.000	527.184
4086	4103	4143	1	120.000	585.760
4086	4085	4144	1	109.500	292.880
4086	4085	4145	1	109.500	292.880
4086	4085	4146	1	109.500	292.880
4086	4087	4147	1	109.500	292.880
4086	4087	4148	1	109.500	292.880
4087	4088	4149	1	110.700	313.800
4087	4088	4150	1	110.700	313.800
4090	4091	4151	1	120.000	292.880
4091	4092	4152	1	120.000	292.880
4094	4095	4153	1	120.000	292.880
4095	4096	4154	1	120.000	292.880
4097	4098	4155	1	109.5	0.0
4097	4099	4156	1	120.000	292.880
4094	4100	4157	1	120.000	292.880
4093	4101	4158	1	120.000	292.880
4090	4102	4159	1	120.000	292.880
4103	4104	4160	1	120.000	292.880
4104	4105	4161	1	120.000	292.880
4106	4107	4162	1	123.300	292.880
4107	4108	4163	1	120.000	292.880
4109	4110	4164	1	122.260	502.080
4111	4112	4165	1	120.000	292.880
4112	4113	4166	1	120.000	292.880
4113	4114	4167	1	120.000	292.880
4127	4128	4168	1	120.000	292.880
4128	4129	4169	1	120.000	292.880
4129	4130	4170	1	120.000	292.880
4130	4131	4171	1	120.000	292.880
4127	4132	4172	1	120.000	292.880
4111	4137	4173	1	109.500	292.880
4111	4137	4174	1	109.500	292.880
4138	4139	4175	1	110.700	313.800
4138	4139	4176	1	110.700	313.800
4138	4139	4177	1	110.700	313.800
4138	4140	4178	1	110.700	313.800
4138	4140	4179	1	110.700	313.800
4138	4140	4180	1	110.700	313.800
4109	4141	4181	1	109.500	292.880
4109	4141	4182	1	109.500	292.880
4106	4142	4183	1	120.000	292.880
4103	4143	4184	1	120.000	292.880
4102	4101	4158	1	120.000	292.880
4106	4142	4143	1	120.000	527.184
4091	4090	4102	1	120.000	527.184
4138	4137	4174	1	110.700	313.800
4105	4104	4160	1	120.000	292.880
4142	4143	4184	1	120.000	292.880
4103	4143	4142	1	120.000	527.184
4130	4131	4132	1	120.000	527.184
4145	4085	4146	1	107.800	276.144
4098	4097	4099	1	109.5	0.0
4110	4109	4141	1	124.000	585.760
4138	4141	4181	1	110.700	313.800
4096	4095	4153	1	120.000	292.880
4132	4131	4171	1	120.000	292.880
4179	4140	4180	1	107.800	276.144
4121	4120	4123	1	118.760	505.678
4089	4088	4150	1	109.500	292.880
4089	4088	4149	1	109.500	292.880
4140	4138	4141	1	112.700	488.273
4181	4141	4182	1	107.800	276.144
4127	4132	4131	1	120.000	527.184
4117	4116	4119	1	122.000	669.440
4119	4125	4126	1	111.000	627.600
4108	4107	4162	1	120.000	292.880
4101	4102	4159	1	120.000	292.880
4093	4101	4102	1	120.000	527.184
4130	4129	4169	1	120.000	292.880
4094	4093	4101	1	120.000	527.184
4144	4085	4146	1	107.800	276.144
4113	4112	4165	1	120.000	292.880
4094	4100	4099	1	120.000	527.184
4128	4127	4132	1	120.000	527.184
4120	4119	4125	1	120.000	585.760
4100	4099	4156	1	120.000	292.880
4106	4105	4161	1	120.000	292.880
4134	4133	4136	1	109.100	644.336
4125	4126	4133	1	109.500	418.400
4143	4142	4183	1	120.000	292.880
4176	4139	4177	1	107.800	276.144
4090	4102	4101	1	120.000	527.184
4095	4094	4100	1	120.000	527.184
4138	4137	4173	1	110.700	313.800
4127	4126	4133	1	114.000	527.184
4129	4128	4168	1	120.000	292.880
4125	4126	4127	1	109.500	418.400
4131	4132	4172	1	120.000	292.880
4173	4137	4174	1	107.800	276.144
4092	4091	4151	1	120.000	292.880
4175	4139	4177	1	107.800	276.144
4088	4087	4148	1	110.700	313.800
4112	4111	4137	1	124.000	585.760
4134	4133	4135	1	109.100	644.336
4088	4087	4147	1	110.700	313.800
4175	4139	4176	1	107.800	276.144
4107	4106	4142	1	124.000	585.760
4116	4115	4126	1	124.000	585.760
4104	4103	4143	1	120.000	527.184
4139	4138	4140	1	112.700	488.273
4099	4100	4157	1	120.000	292.880
4115	4126	4125	1	109.500	418.400
4137	4138	4141	1	112.700	488.273
4109	4141	4138	1	111.100	527.184
4149	4088	4150	1	107.800	276.144
4135	4133	4136	1	109.100	644.336
4144	4085	4145	1	107.800	276.144
4097	4096	4154	1	120.000	292.880
4114	4113	4166	1	120.000	292.880
4178	4140	4180	1	107.800	276.144
4147	4087	4148	1	107.800	276.144
4087	4086	4103	1	116.000	418.400
4139	4138	4141	1	112.700	488.273
4111	4110	4164	1	122.260	502.080
4093	4092	4152	1	120.000	292.880
4138	4141	4182	1	110.700	313.800
4178	4140	4179	1	107.800	276.144
4109	4108	4163	1	120.000	292.880
4115	4114	4167	1	123.300	292.880
4131	4130	4170	1	120.000	292.880
4097	4099	4100	1	120.000	527.184
4185	4186	4187	1	107.200	433.462
4186	4187	4188	1	109.470	470.282
4187	4188	4189	1	109.500	418.400
4188	4189	4190	1	111.000	627.600
4189	4190	4191	1	120.000	585.760
4190	4191	4192	1	120.000	527.184
4191	4192	4193	1	120.000	527.184
4192	4193	4194	1	120.000	527.184
4193	4194	4195	1	120.000	527.184
4194	4195	4196	1	120.000	527.184
4195	4196	4197	1	120.000	527.184
4196	4197	4198	1	109.5	0.0
4196	4197	4199	1	120.000	527.184
4193	4194	4200	1	120.000	527.184
4192	4193	4201	1	120.000	527.184
4189	4190	4202	1	120.000	585.760
4185	4186	4203	1	116.000	418.400
4186	4203	4204	1	120.000	585.760
4203	4204	4205	1	120.000	527.184
4204	4205	4206	1	120.000	527.184
4205	4206	4207	1	124.000	585.760
4206	4207	4208	1	117.000	711.280
4207	4208	4209	1	124.000	585.760
4208	4209	4210	1	124.000	585.760
4209	4210	4211	1	124.000	585.760
4210	4211	4212	1	124.000	585.760
4211	4212	4213	1	124.000	585.760
4212	4213	4214	1	124.000	585.760
4213	4214	4215	1	117.000	711.280
4214	4215	4216	1	118.760	505.678
4215	4216	4217	1	124.000	585.760
4216	4217	4218	1	180.000	1255.200
4215	4216	4219	1	117.000	711.280
4216	4219	4220	1	124.000	585.760
4219	4220	4221	1	122.000	669.440
4220	4221	4222	1	180.000	1255.200
4219	4220	4223	1	122.000	669.440
4220	4223	4224	1	180.000	1255.200
4216	4219	4225	1	110.000	585.760
4214	4215	4226	1	124.000	585.760
4215	4226	4227	1	109.500	334.720
4226	4227	4228	1	120.000	585.760
4227	4228	4229	1	120.000	527.184
4228	4229	4230	1	120.000	527.184
4229	4230	4231	1	120.000	527.184
4226	4227	4232	1	120.000	585.760
4215	4226	4233	1	111.100	527.184
4226	4233	4234	1	109.500	418.400
4226	4233	4235	1	109.500	418.400
4226	4233	4236	1	109.500	418.400
4210	4211	4237	1	124.000	585.760
4211	4237	4238	1	111.100	527.184
4237	4238	4239	1	112.700	488.273
4237	4238	4240	1	112.700	488.273
4208	4209	4241	1	124.000	585.760
4205	4206	4242	1	120.000	527.184
4186	4203	4243	1	120.000	585.760
4186	4185	4244	1	109.500	292.880
4186	4185	4245	1	109.500	292.880
4186	4185	4246	1	109.500	292.880
4186	4187	4247	1	109.500	292.880
4186	4187	4248	1	109.500	292.880
4187	4188	4249	1	110.700	313.800
4187	4188	4250	1	110.700	313.800
4190	4191	4251	1	120.000	292.880
4191	4192	4252	1	120.000	292.880
4194	4195	4253	1	120.000	292.880
4195	4196	4254	1	120.000	292.880
4197	4198	4255	1	109.5	0.0
4197	4199	4256	1	120.000	292.880
4194	4200	4257	1	120.000	292.880
4193	4201	4258	1	120.000	292.880
4190	4202	4259	1	120.000	292.880
4203	4204	4260	1	120.000	292.880
4204	4205	4261	1	120.000	292.880
4206	4207	4262	1	123.300	292.880
4207	4208	4263	1	120.000	292.880
4209	4210	4264	1	122.260	502.080
4211	4212	4265	1	120.000	292.880
4212	4213	4266	1	120.000	292.880
4213	4214	4267	1	120.000	292.880
4227	4228	4268	1	120.000	292.880
4228	4229	4269	1	120.000	292.880
4229	4230	4270	1	120.000	292.880
4230	4231	4271	1	120.000	292.880
4227	4232	4272	1	120.000	292.880
4211	4237	4273	1	109.500	292.880
4211	4237	4274	1	109.500	292.880
4238	4239	4275	1	110.700	313.800
4238	4239	4276	1	110.700	313.800
4238	4239	4277	1	110.700	313.800
4238	4240	4278	1	110.700	313.800
4238	4240	4279	1	110.700	313.800
4238	4240	4280	1	110.700	313.800
4209	4241	4281	1	109.500	292.880
4209	4241	4282	1	109.500	292.880
4206	4242	4283	1	120.000	292.880
4203	4243	4284	1	120.000	292.880
4202	4201	4258	1	120.000	292.880
4206	4242	4243	1	120.000	527.184
4191	4190	4202	1	120.000	527.184
4238	4237	4274	1	110.700	313.800
4205	4204	4260	1	120.000	292.880
4242	4243	4284	1	120.000	292.880
4203	4243	4242	1	120.000	527.184
4230	4231	4232	1	120.000	527.184
4245	4185	4246	1	107.800	276.144
4198	4197	4199	1	109.5	0.0
4210	4209	4241	1	124.000	585.760
4238	4241	4281	1	110.700	313.800
4196	4195	4253	1	120.000	292.880
4232	4231	4271	1	120.000	292.880
4279	4240	4280	1	107.800	276.144
4221	4220	4223	1	118.760	505.678
4189	4188	4250	1	109.500	292.880
4189	4188	4249	1	109.500	292.880
4240	4238	4241	1	112.700	488.273
4281	4241	4282	1	107.800	276.144
4227	4232	4231	1	120.000	527.184
4217	4216	4219	1	122.000	669.440
4219	4225	4226	1	111.000	627.600
4208	4207	4262	1	120.000	292.880
4201	4202	4259	1	120.000	292.880
4193	4201	4202	1	120.000	527.184
4230	4229	4269	1	120.000	292.880
4194	4193	4201	1	120.000	527.184
4244	4185	4246	1	107.800	276.144
4213	4212	4265	1	120.000	292.880
4194	4200	4199	1	120.000	527.184
4228	4227	4232	1	120.000	527.184
4220	4219	4225	1	120.000	585.760
4200	4199	4256	1	120.000	292.880
4206	4205	4261	1	120.000	292.880
4234	4233	4236	1	109.100	644.336
4225	4226	4233	1	109.500	418.400
4243	4242	4283	1	120.000	292.880
4276	4239	4277	1	107.800	276.144
4190	4202	4201	1	120.000	527.184
4195	4194	4200	1	120.000	527.184
4238	4237	4273	1	110.700	313.800
4227	4226	4233	1	114.000	527.184
4229	4228	4268	1	120.000	292.880
4225	4226	4227	1	109.500	418.400
4231	4232	4272	1	120.000	292.880
4273	4237	4274	1	107.800	276.144
4192	4191	4251	1	120.000	292.880
4275	4239	4277	1	107.800	276.144
4188	4187	4248	1	110.700	313.800
4212	4211	4237	1	124.000	585.760
4234	4233	4235	1	109.100	644.336
4188	4187	4247	1	110.700	313.800
4275	4239	4276	1	107.800	276.144
4207	4206	4242	1	124.000	585.760
4216	4215	4226	1	124.000	585.760
4204	4203	4243	1	120.000	527.184
4239	4238	4240	1	112.700	488.273
4199	4200	4257	1	120.000	292.880
4215	4226	4225	1	109.500	418.400
4237	4238	4241	1	112.700	488.273
4209	4241	4238	1	111.100	527.184
4249	4188	4250	1	107.800	276.144
4235	4233	4236	1	109.100	644.336
4244	4185	4245	1	107.800	276.144
4197	4196	4254	1	120.000	292.880
4214	4213	4266	1	120.000	292.880
4278	4240	4280	1	107.800	276.144
4247	4187	4248	1	107.800	276.144
4187	4186	4203	1	116.000	418.400
4239	4238	4241	1	112.700	488.273
4211	4210	4264	1	122.260	502.080
4193	4192	4252	1	120.000	292.880
4238	4241	4282	1	110.700	313.800
4278	4240	4279	1	107.800	276.144
4209	4208	4263	1	120.000	292.880
4215	4214	4267	1	123.300	292.880
4231	4230	4270	1	120.000	292.880
4197	4199	4200	1	120.000	527.184
4285	4286	4287	1	107.200	433.462
4286	4287	4288	1	109.470	470.282
4287	4288	4289	1	109.500	418.400
4288	4289	4290	1	111.000	627.600
4289	4290	4291	1	120.000	585.760
4290	4291	4292	1	120.000	527.184
4291	4292	4293	1	120.000	527.184
4292	4293	4294	1	120.000	527.184
4293	4294	4295	1	120.000	527.184
4294	4295	4296	1	120.000	527.184
4295	4296	4297	1	120.000	527.184
4296	4297	4298	1	109.5	0.0
4296	4297	4299	1	120.000	527.184
4293	4294	4300	1	120.000	527.184
4292	4293	4301	1	120.000	527.184
4289	4290	4302	1	120.000	585.760
4285	4286	4303	1	116.000	418.400
4286	4303	4304	1	120.000	585.760
4303	4304	4305	1	120.000	527.184
4304	4305	4306	1	120.000	527.184
4305	4306	4307	1	124.000	585.760
4306	4307	4308	1	117.000	711.280
4307	4308	4309	1	124.000	585.760
4308	4309	4310	1	124.000	585.760
4309	4310	4311	1	124.000	585.760
4310	4311	4312	1	124.000	585.760
4311	4312	4313	1	124.000	585.760
4312	4313	4314	1	124.000	585.760
4313	4314	4315	1	117.000	711.280
4314	4315	4316	1	118.760	505.678
4315	4316	4317	1	124.000	585.760
4316	4317	4318	1	180.000	1255.200
4315	4316	4319	1	117.000	711.280
4316	4319	4320	1	124.000	585.760
4319	4320	4321	1	122.000	669.440
4320	4321	4322	1	180.000	1255.200
4319	4320	4323	1	122.000	669.440
4320	4323	4324	1	180.000	1255.200
4316	4319	4325	1	110.000	585.760
4314	4315	4326	1	124.000	585.760
4315	4326	4327	1	109.500	334.720
4326	4327	4328	1	120.000	585.760
4327	4328	4329	1	120.000	527.184
4328	4329	4330	1	120.000	527.184
4329	4330	4331	1	120.000	527.184
4326	4327	4332	1	120.000	585.760
4315	4326	4333	1	111.100	527.184
4326	4333	4334	1	109.500	418.400
4326	4333	4335	1	109.500	418.400
4326	4333	4336	1	109.500	418.400
4310	4311	4337	1	124.000	585.760
4311	4337	4338	1	111.100	527.184
4337	4338	4339	1	112.700	488.273
4337	4338	4340	1	112.700	488.273
4308	4309	4341	1	124.000	585.760
4305	4306	4342	1	120.000	527.184
4286	4303	4343	1	120.000	585.760
4286	4285	4344	1	109.500	292.880
4286	4285	4345	1	109.500	292.880
4286	4285	4346	1	109.500	292.880
4286	4287	4347	1	109.500	292.880
4286	4287	4348	1	109.500	292.880
4287	4288	4349	1	110.700	313.800
4287	4288	4350	1	110.700	313.800
4290	4291	4351	1	120.000	292.880
4291	4292	4352	1	120.000	292.880
4294	4295	4353	1	120.000	292.880
4295	4296	4354	1	120.000	292.880
4297	4298	4355	1	109.5	0.0
4297	4299	4356	1	120.000	292.880
4294	4300	4357	1	120.000	292.880
4293	4301	4358	1	120.000	292.880
4290	4302	4359	1	120.000	292.880
4303	4304	4360	1	120.000	292.880
4304	4305	4361	1	120.000	292.880
4306	4307	4362	1	123.300	292.880
4307	4308	4363	1	120.000	292.880
4309	4310	4364	1	122.260	502.080
4311	4312	4365	1	120.000	292.880
4312	4313	4366	1	120.000	292.880
4313	4314	4367	1	120.000	292.880
4327	4328	4368	1	120.000	292.880
4328	4329	4369	1	120.000	292.880
4329	4330	4370	1	120.000	292.880
4330	4331	4371	1	120.000	292.880
4327	4332	4372	1	120.000	292.880
4311	4337	4373	1	109.500	292.880
4311	4337	4374	1	109.500	292.880
4338	4339	4375	1	110.700	313.800
4338	4339	4376	1	110.700	313.800
4338	4339	4377	1	110.700	313.800
4338	4340	4378	1	110.700	313.800
4338	4340	4379	1	110.700	313.800
4338	4340	4380	1	110.700	313.800
4309	4341	4381	1	109.500	292.880
4309	4341	4382	1	109.500	292.880
4306	4342	4383	1	120.000	292.880
4303	4343	4384	1	120.000	292.880
4302	4301	4358	1	120.000	292.880
4306	4342	4343	1	120.000	527.184
4291	4290	4302	1	120.000	527.184
4338	4337	4374	1	110.700	313.800
4305	4304	4360	1	120.000	292.880
4342	4343	4384	1	120.000	292.880
4303	4343	4342	1	120.000	527.184
4330	4331	4332	1	120.000	527.184
4345	4285	4346	1	107.800	276.144
4298	4297	4299	1	109.5	0.0
4310	4309	4341	1	124.000	585.760
4338	4341	4381	1	110.700	313.800
4296	4295	4353	1	120.000	292.880
4332	4331	4371	1	120.000	292.880
4379	4340	4380	1	107.800	276.144
4321	4320	4323	1	118.760	505.678
4289	4288	4350	1	109.500	292.880
4289	4288	4349	1	109.500	292.880
4340	4338	4341	1	112.700	488.273
4381	4341	4382	1	107.800	276.144
4327	4332	4331	1	120.000	527.184
4317	4316	4319	1	122.000	669.440
4319	4325	4326	1	111.000	627.600
4308	4307	4362	1	120.000	292.880
4301	4302	4359	1	120.000	292.880
4293	4301	4302	1	120.000	527.184
4330	4329	4369	1	120.000	292.880
4294	4293	4301	1	120.000	527.184
4344	4285	4346	1	107.800	276.144
4313	4312	4365	1	120.000	292.880
4294	4300	4299	1	120.000	527.184
4328	4327	4332	1	120.000	527.184
4320	4319	4325	1	120.000	585.760
4300	4299	4356	1	120.000	292.880
4306	4305	4361	1	120.000	292.880
4334	4333	4336	1	109.100	644.336
4325	4326	4333	1	109.500	418.400
4343	4342	4383	1	120.000	292.880
4376	4339	4377	1	107.800	276.144
4290	4302	4301	1	120.000	527.184
4295	4294	4300	1	120.000	527.184
4338	4337	4373	1	110.700	313.800
4327	4326	4333	1	114.000	527.184
4329	4328	4368	1	120.000	292.880
4325	4326	4327	1	109.500	418.400
4331	4332	4372	1	120.000	292.880
4373	4337	4374	1	107.800	276.144
4292	4291	4351	1	120.000	292.880
4375	4339	4377	1	107.800	276.144
4288	4287	4348	1	110.700	313.800
4312	4311	4337	1	124.000	585.760
4334	4333	4335	1	109.100	644.336
4288	4287	4347	1	110.700	313.800
4375	4339	4376	1	107.800	276.144
4307	4306	4342	1	124.000	585.760
4316	4315	4326	1	124.000	585.760
4304	4303	4343	1	120.000	527.184
4339	4338	4340	1	112.700	488.273
4299	4300	4357	1	120.000	292.880
4315	4326	4325	1	109.500	418.400
4337	4338	4341	1	112.700	488.273
4309	4341	4338	1	111.100	527.184
4349	4288	4350	1	107.800	276.144
4335	4333	4336	1	109.100	644.336
4344	4285	4345	1	107.800	276.144
4297	4296	4354	1	120.000	292.880
4314	4313	4366	1	120.000	292.880
4378	4340	4380	1	107.800	276.144
4347	4287	4348	1	107.800	276.144
4287	4286	4303	1	116.000	418.400
4339	4338	4341	1	112.700	488.273
4311	4310	4364	1	122.260	502.080
4293	4292	4352	1	120.000	292.880
4338	4341	4382	1	110.700	313.800
4378	4340	4379	1	107.800	276.144
4309	4308	4363	1	120.000	292.880
4315	4314	4367	1	123.300	292.880
4331	4330	4370	1	120.000	292.880
4297	4299	4300	1	120.000	527.184
4385	4386	4387	1	107.200	433.462
4386	4387	4388	1	109.470	470.282
4387	4388	4389	1	109.500	418.400
4388	4389	4390	1	111.000	627.600
4389	4390	4391	1	120.000	585.760
4390	4391	4392	1	120.000	527.184
4391	4392	4393	1	120.000	527.184
4392	4393	4394	1	120.000	527.184
4393	4394	4395	1	120.000	527.184
4394	4395	4396	1	120.000	527.184
4395	4396	4397	1	120.000	527.184
4396	4397	4398	1	109.5	0.0
4396	4397	4399	1	120.000	527.184
4393	4394	4400	1	120.000	527.184
4392	4393	4401	1	120.000	527.184
4389	4390	4402	1	120.000	585.760
4385	4386	4403	1	116.000	418.400
4386	4403	4404	1	120.000	585.760
4403	4404	4405	1	120.000	527.184
4404	4405	4406	1	120.000	527.184
4405	4406	4407	1	124.000	585.760
4406	4407	4408	1	117.000	711.280
4407	4408	4409	1	124.000	585.760
4408	4409	4410	1	124.000	585.760
4409	4410	4411	1	124.000	585.760
4410	4411	4412	1	124.000	585.760
4411	4412	4413	1	124.000	585.760
4412	4413	4414	1	124.000	585.760
4413	4414	4415	1	117.000	711.280
4414	4415	4416	1	118.760	505.678
4415	4416	4417	1	124.000	585.760
4416	4417	4418	1	180.000	1255.200
4415	4416	4419	1	117.000	711.280
4416	4419	4420	1	124.000	585.760
4419	4420	4421	1	122.000	669.440
4420	4421	4422	1	180.000	1255.200
4419	4420	4423	1	122.000	669.440
4420	4423	4424	1	180.000	1255.200
4416	4419	4425	1	110.000	585.760
4414	4415	4426	1	124.000	585.760
4415	4426	4427	1	109.500	334.720
4426	4427	4428	1	120.000	585.760
4427	4428	4429	1	120.000	527.184
4428	4429	4430	1	120.000	527.184
4429	4430	4431	1	120.000	527.184
4426	4427	4432	1	120.000	585.760
4415	4426	4433	1	111.100	527.184
4426	4433	4434	1	109.500	418.400
4426	4433	4435	1	109.500	418.400
4426	4433	4436	1	109.500	418.400
4410	4411	4437	1	124.000	585.760
4411	4437	4438	1	111.100	527.184
4437	4438	4439	1	112.700	488.273
4437	4438	4440	1	112.700	488.273
4408	4409	4441	1	124.000	585.760
4405	4406	4442	1	120.000	527.184
4386	4403	4443	1	120.000	585.760
4386	4385	4444	1	109.500	292.880
4386	4385	4445	1	109.500	292.880
4386	4385	4446	1	109.500	292.880
4386	4387	4447	1	109.500	292.880
4386	4387	4448	1	109.500	292.880
4387	4388	4449	1	110.700	313.800
4387	4388	4450	1	110.700	313.800
4390	4391	4451	1	120.000	292.880
4391	4392	4452	1	120.000	292.880
4394	4395	4453	1	120.000	292.880
4395	4396	4454	1	120.000	292.880
4397	4398	4455	1	109.5	0.0
4397	4399	4456	1	120.000	292.880
4394	4400	4457	1	120.000	292.880
4393	4401	4458	1	120.000	292.880
4390	4402	4459	1	120.000	292.880
4403	4404	4460	1	120.000	292.880
4404	4405	4461	1	120.000	292.880
4406	4407	4462	1	123.300	292.880
4407	4408	4463	1	120.000	292.880
4409	4410	4464	1	122.260	502.080
4411	4412	4465	1	120.000	292.880
4412	4413	4466	1	120.000	292.880
4413	4414	4467	1	120.000	292.880
4427	4428	4468	1	120.000	292.880
4428	4429	4469	1	120.000	292.880
4429	4430	4470	1	120.000	292.880
4430	4431	4471	1	120.000	292.880
4427	4432	4472	1	120.000	292.880
4411	4437	4473	1	109.500	292.880
4411	4437	4474	1	109.500	292.880
4438	4439	4475	1	110.700	313.800
4438	4439	4476	1	110.700	313.800
4438	4439	4477	1	110.700	313.800
4438	4440	4478	1	110.700	313.800
4438	4440	4479	1	110.700	313.800
4438	4440	4480	1	110.700	313.800
4409	4441	4481	1	109.500	292.880
4409	4441	4482	1	109.500	292.880
4406	4442	4483	1	120.000	292.880
4403	4443	4484	1	120.000	292.880
4402	4401	4458	1	120.000	292.880
4406	4442	4443	1	120.000	527.184
4391	4390	4402	1	120.000	527.184
4438	4437	4474	1	110.700	313.800
4405	4404	4460	1	120.000	292.880
4442	4443	4484	1	120.000	292.880
4403	4443	4442	1	120.000	527.184
4430	4431	4432	1	120.000	527.184
4445	4385	4446	1	107.800	276.144
4398	4397	4399	1	109.5	0.0
4410	4409	4441	1	124.000	585.760
4438	4441	4481	1	110.700	313.800
4396	4395	4453	1	120.000	292.880
4432	4431	4471	1	120.000	292.880
4479	4440	4480	1	107.800	276.144
4421	4420	4423	1	118.760	505.678
4389	4388	4450	1	109.500	292.880
4389	4388	4449	1	109.500	292.880
4440	4438	4441	1	112.700	488.273
4481	4441	4482	1	107.800	276.144
4427	4432	4431	1	120.000	527.184
4417	4416	4419	1	122.000	669.440
4419	4425	4426	1	111.000	627.600
4408	4407	4462	1	120.000	292.880
4401	4402	4459	1	120.000	292.880
4393	4401	4402	1	120.000	527.184
4430	4429	4469	1	120.000	292.880
4394	4393	4401	1	120.000	527.184
4444	4385	4446	1	107.800	276.144
4413	4412	4465	1	120.000	292.880
4394	4400	4399	1	120.000	527.184
4428	4427	4432	1	120.000	527.184
4420	4419	4425	1	120.000	585.760
4400	4399	4456	1	120.000	292.880
4406	4405	4461	1	120.000	292.880
4434	4433	4436	1	109.100	644.336
4425	4426	4433	1	109.500	418.400
4443	4442	4483	1	120.000	292.880
4476	4439	4477	1	107.800	276.144
4390	4402	4401	1	120.000	527.184
4395	4394	4400	1	120.000	527.184
4438	4437	4473	1	110.700	313.800
4427	4426	4433	1	114.000	527.184
4429	4428	4468	1	120.000	292.880
4425	4426	4427	1	109.500	418.400
4431	4432	4472	1	120.000	292.880
4473	4437	4474	1	107.800	276.144
4392	4391	4451	1	120.000	292.880
4475	4439	4477	1	107.800	276.144
4388	4387	4448	1	110.700	313.800
4412	4411	4437	1	124.000	585.760
4434	4433	4435	1	109.100	644.336
4388	4387	4447	1	110.700	313.800
4475	4439	4476	1	107.800	276.144
4407	4406	4442	1	124.000	585.760
4416	4415	4426	1	124.000	585.760
4404	4403	4443	1	120.000	527.184
4439	4438	4440	1	112.700	488.273
4399	4400	4457	1	120.000	292.880
4415	4426	4425	1	109.500	418.400
4437	4438	4441	1	112.700	488.273
4409	4441	4438	1	111.100	527.184
4449	4388	4450	1	107.800	276.144
4435	4433	4436	1	109.100	644.336
4444	4385	4445	1	107.800	276.144
4397	4396	4454	1	120.000	292.880
4414	4413	4466	1	120.000	292.880
4478	4440	4480	1	107.800	276.144
4447	4387	4448	1	107.800	276.144
4387	4386	4403	1	116.000	418.400
4439	4438	4441	1	112.700	488.273
4411	4410	4464	1	122.260	502.080
4393	4392	4452	1	120.000	292.880
4438	4441	4482	1	110.700	313.800
4478	4440	4479	1	107.800	276.144
4409	4408	4463	1	120.000	292.880
4415	4414	4467	1	123.300	292.880
4431	4430	4470	1	120.000	292.880
4397	4399	4400	1	120.000	527.184
4485	4486	4487	1	107.200	433.462
4486	4487	4488	1	109.470	470.282
4487	4488	4489	1	109.500	418.400
4488	4489	4490	1	111.000	627.600
4489	4490	4491	1	120.000	585.760
4490	4491	4492	1	120.000	527.184
4491	4492	4493	1	120.000	527.184
4492	4493	4494	1	120.000	527.184
4493	4494	4495	1	120.000	527.184
4494	4495	4496	1	120.000	527.184
4495	4496	4497	1	120.000	527.184
4496	4497	4498	1	109.5	0.0
4496	4497	4499	1	120.000	527.184
4493	4494	4500	1	120.000	527.184
4492	4493	4501	1	120.000	527.184
4489	4490	4502	1	120.000	585.760
4485	4486	4503	1	116.000	418.400
4486	4503	4504	1	120.000	585.760
4503	4504	4505	1	120.000	527.184
4504	4505	4506	1	120.000	527.184
4505	4506	4507	1	124.000	585.760
4506	4507	4508	1	117.000	711.280
4507	4508	4509	1	124.000	585.760
4508	4509	4510	1	124.000	585.760
4509	4510	4511	1	124.000	585.760
4510	4511	4512	1	124.000	585.760
4511	4512	4513	1	124.000	585.760
4512	4513	4514	1	124.000	585.760
4513	4514	4515	1	117.000	711.280
4514	4515	4516	1	118.760	505.678
4515	4516	4517	1	124.000	585.760
4516	4517	4518	1	180.000	1255.200
4515	4516	4519	1	117.000	711.280
4516	4519	4520	1	124.000	585.760
4519	4520	4521	1	122.000	669.440
4520	4521	4522	1	180.000	1255.200
4519	4520	4523	1	122.000	669.440
4520	4523	4524	1	180.000	1255.200
4516	4519	4525	1	110.000	585.760
4514	4515	4526	1	124.000	585.760
4515	4526	4527	1	109.500	334.720
4526	4527	4528	1	120.000	585.760
4527	4528	4529	1	120.000	527.184
4528	4529	4530	1	120.000	527.184
4529	4530	4531	1	120.000	527.184
4526	4527	4532	1	120.000	585.760
4515	4526	4533	1	111.100	527.184
4526	4533	4534	1	109.500	418.400
4526	4533	4535	1	109.500	418.400
4526	4533	4536	1	109.500	418.400
4510	4511	4537	1	124.000	585.760
4511	4537	4538	1	111.100	527.184
4537	4538	4539	1	112.700	488.273
4537	4538	4540	1	112.700	488.273
4508	4509	4541	1	124.000	585.760
4505	4506	4542	1	120.000	527.184
4486	4503	4543	1	120.000	585.760
4486	4485	4544	1	109.500	292.880
4486	4485	4545	1	109.500	292.880
4486	4485	4546	1	109.500	292.880
4486	4487	4547	1	109.500	292.880
4486	4487	4548	1	109.500	292.880
4487	4488	4549	1	110.700	313.800
4487	4488	4550	1	110.700	313.800
4490	4491	4551	1	120.000	292.880
4491	4492	4552	1	120.000	292.880
4494	4495	4553	1	120.000	292.880
4495	4496	4554	1	120.000	292.880
4497	4498	4555	1	109.5	0.0
4497	4499	4556	1	120.000	292.880
4494	4500	4557	1	120.000	292.880
4493	4501	4558	1	120.000	292.880
4490	4502	4559	1	120.000	292.880
4503	4504	4560	1	120.000	292.880
4504	4505	4561	1	120.000	292.880
4506	4507	4562	1	123.300	292.880
4507	4508	4563	1	120.000	292.880
4509	4510	4564	1	122.260	502.080
4511	4512	4565	1	120.000	292.880
4512	4513	4566	1	120.000	292.880
4513	4514	4567	1	120.000	292.880
4527	4528	4568	1	120.000	292.880
4528	4529	4569	1	120.000	292.880
4529	4530	4570	1	120.000	292.880
4530	4531	4571	1	120.000	292.880
4527	4532	4572	1	120.000	292.880
4511	4537	4573	1	109.500	292.880
4511	4537	4574	1	109.500	292.880
4538	4539	4575	1	110.700	313.800
4538	4539	4576	1	110.700	313.800
4538	4539	4577	1	110.700	313.800
4538	4540	4578	1	110.700	313.800
4538	4540	4579	1	110.700	313.800
4538	4540	4580	1	110.700	313.800
4509	4541	4581	1	109.500	292.880
4509	4541	4582	1	109.500	292.880
4506	4542	4583	1	120.000	292.880
4503	4543	4584	1	120.000	292.880
4502	4501	4558	1	120.000	292.880
4506	4542	4543	1	120.000	527.184
4491	4490	4502	1	120.000	527.184
4538	4537	4574	1	110.700	313.800
4505	4504	4560	1	120.000	292.880
4542	4543	4584	1	120.000	292.880
4503	4543	4542	1	120.000	527.184
4530	4531	4532	1	120.000	527.184
4545	4485	4546	1	107.800	276.144
4498	4497	4499	1	109.5	0.0
4510	4509	4541	1	124.000	585.760
4538	4541	4581	1	110.700	313.800
4496	4495	4553	1	120.000	292.880
4532	4531	4571	1	120.000	292.880
4579	4540	4580	1	107.800	276.144
4521	4520	4523	1	118.760	505.678
4489	4488	4550	1	109.500	292.880
4489	4488	4549	1	109.500	292.880
4540	4538	4541	1	112.700	488.273
4581	4541	4582	1	107.800	276.144
4527	4532	4531	1	120.000	527.184
4517	4516	4519	1	122.000	669.440
4519	4525	4526	1	111.000	627.600
4508	4507	4562	1	120.000	292.880
4501	4502	4559	1	120.000	292.880
4493	4501	4502	1	120.000	527.184
4530	4529	4569	1	120.000	292.880
4494	4493	4501	1	120.000	527.184
4544	4485	4546	1	107.800	276.144
4513	4512	4565	1	120.000	292.880
4494	4500	4499	1	120.000	527.184
4528	4527	4532	1	120.000	527.184
4520	4519	4525	1	120.000	585.760
4500	4499	4556	1	120.000	292.880
4506	4505	4561	1	120.000	292.880
4534	4533	4536	1	109.100	644.336
4525	4526	4533	1	109.500	418.400
4543	4542	4583	1	120.000	292.880
4576	4539	4577	1	107.800	276.144
4490	4502	4501	1	120.000	527.184
4495	4494	4500	1	120.000	527.184
4538	4537	4573	1	110.700	313.800
4527	4526	4533	1	114.000	527.184
4529	4528	4568	1	120.000	292.880
4525	4526	4527	1	109.500	418.400
4531	4532	4572	1	120.000	292.880
4573	4537	4574	1	107.800	276.144
4492	4491	4551	1	120.000	292.880
4575	4539	4577	1	107.800	276.144
4488	4487	4548	1	110.700	313.800
4512	4511	4537	1	124.000	585.760
4534	4533	4535	1	109.100	644.336
4488	4487	4547	1	110.700	313.800
4575	4539	4576	1	107.800	276.144
4507	4506	4542	1	124.000	585.760
4516	4515	4526	1	124.000	585.760
4504	4503	4543	1	120.000	527.184
4539	4538	4540	1	112.700	488.273
4499	4500	4557	1	120.000	292.880
4515	4526	4525	1	109.500	418.400
4537	4538	4541	1	112.700	488.273
4509	4541	4538	1	111.100	527.184
4549	4488	4550	1	107.800	276.144
4535	4533	4536	1	109.100	644.336
4544	4485	4545	1	107.800	276.144
4497	4496	4554	1	120.000	292.880
4514	4513	4566	1	120.000	292.880
4578	4540	4580	1	107.800	276.144
4547	4487	4548	1	107.800	276.144
4487	4486	4503	1	116.000	418.400
4539	4538	4541	1	112.700	488.273
4511	4510	4564	1	122.260	502.080
4493	4492	4552	1	120.000	292.880
4538	4541	4582	1	110.700	313.800
4578	4540	4579	1	107.800	276.144
4509	4508	4563	1	120.000	292.880
4515	4514	4567	1	123.300	292.880
4531	4530	4570	1	120.000	292.880
4497	4499	4500	1	120.000	527.184
4585	4586	4587	1	107.200	433.462
4586	4587	4588	1	109.470	470.282
4587	4588	4589	1	109.500	418.400
4588	4589	4590	1	111.000	627.600
4589	4590	4591	1	120.000	585.760
4590	4591	4592	1	120.000	527.184
4591	4592	4593	1	120.000	527.184
4592	4593	4594	1	120.000	527.184
4593	4594	4595	1	120.000	527.184
4594	4595	4596	1	120.000	527.184
4595	4596	4597	1	120.000	527.184
4596	4597	4598	1	109.5	0.0
4596	4597	4599	1	120.000	527.184
4593	4594	4600	1	120.000	527.184
4592	4593	4601	1	120.000	527.184
4589	4590	4602	1	120.000	585.760
4585	4586	4603	1	116.000	418.400
4586	4603	4604	1	120.000	585.760
4603	4604	4605	1	120.000	527.184
4604	4605	4606	1	120.000	527.184
4605	4606	4607	1	124.000	585.760
4606	4607	4608	1	117.000	711.280
4607	4608	4609	1	124.000	585.760
4608	4609	4610	1	124.000	585.760
4609	4610	4611	1	124.000	585.760
4610	4611	4612	1	124.000	585.760
4611	4612	4613	1	124.000	585.760
4612	4613	4614	1	124.000	585.760
4613	4614	4615	1	117.000	711.280
4614	4615	4616	1	118.760	505.678
4615	4616	4617	1	124.000	585.760
4616	4617	4618	1	180.000	1255.200
4615	4616	4619	1	117.000	711.280
4616	4619	4620	1	124.000	585.760
4619	4620	4621	1	122.000	669.440
4620	4621	4622	1	180.000	1255.200
4619	4620	4623	1	122.000	669.440
4620	4623	4624	1	180.000	1255.200
4616	4619	4625	1	110.000	585.760
4614	4615	4626	1	124.000	585.760
4615	4626	4627	1	109.500	334.720
4626	4627	4628	1	120.000	585.760
4627	4628	4629	1	120.000	527.184
4628	4629	4630	1	120.000	527.184
4629	4630	4631	1	120.000	527.184
4626	4627	4632	1	120.000	585.760
4615	4626	4633	1	111.100	527.184
4626	4633	4634	1	109.500	418.400
4626	4633	4635	1	109.500	418.400
4626	4633	4636	1	109.500	418.400
4610	4611	4637	1	124.000	585.760
4611	4637	4638	1	111.100	527.184
4637	4638	4639	1	112.700	488.273
4637	4638	4640	1	112.700	488.273
4608	4609	4641	1	124.000	585.760
4605	4606	4642	1	120.000	527.184
4586	4603	4643	1	120.000	585.760
4586	4585	4644	1	109.500	292.880
4586	4585	4645	1	109.500	292.880
4586	4585	4646	1	109.500	292.880
4586	4587	4647	1	109.500	292.880
4586	4587	4648	1	109.500	292.880
4587	4588	4649	1	110.700	313.800
4587	4588	4650	1	110.700	313.800
4590	4591	4651	1	120.000	292.880
4591	4592	4652	1	120.000	292.880
4594	4595	4653	1	120.000	292.880
4595	4596	4654	1	120.000	292.880
4597	4598	4655	1	109.5	0.0
4597	4599	4656	1	120.000	292.880
4594	4600	4657	1	120.000	292.880
4593	4601	4658	1	120.000	292.880
4590	4602	4659	1	120.000	292.880
4603	4604	4660	1	120.000	292.880
4604	4605	4661	1	120.000	292.880
4606	4607	4662	1	123.300	292.880
4607	4608	4663	1	120.000	292.880
4609	4610	4664	1	122.260	502.080
4611	4612	4665	1	120.000	292.880
4612	4613	4666	1	120.000	292.880
4613	4614	4667	1	120.000	292.880
4627	4628	4668	1	120.000	292.880
4628	4629	4669	1	120.000	292.880
4629	4630	4670	1	120.000	292.880
4630	4631	4671	1	120.000	292.880
4627	4632	4672	1	120.000	292.880
4611	4637	4673	1	109.500	292.880
4611	4637	4674	1	109.500	292.880
4638	4639	4675	1	110.700	313.800
4638	4639	4676	1	110.700	313.800
4638	4639	4677	1	110.700	313.800
4638	4640	4678	1	110.700	313.800
4638	4640	4679	1	110.700	313.800
4638	4640	4680	1	110.700	313.800
4609	4641	4681	1	109.500	292.880
4609	4641	4682	1	109.500	292.880
4606	4642	4683	1	120.000	292.880
4603	4643	4684	1	120.000	292.880
4602	4601	4658	1	120.000	292.880
4606	4642	4643	1	120.000	527.184
4591	4590	4602	1	120.000	527.184
4638	4637	4674	1	110.700	313.800
4605	4604	4660	1	120.000	292.880
4642	4643	4684	1	120.000	292.880
4603	4643	4642	1	120.000	527.184
4630	4631	4632	1	120.000	527.184
4645	4585	4646	1	107.800	276.144
4598	4597	4599	1	109.5	0.0
4610	4609	4641	1	124.000	585.760
4638	4641	4681	1	110.700	313.800
4596	4595	4653	1	120.000	292.880
4632	4631	4671	1	120.000	292.880
4679	4640	4680	1	107.800	276.144
4621	4620	4623	1	118.760	505.678
4589	4588	4650	1	109.500	292.880
4589	4588	4649	1	109.500	292.880
4640	4638	4641	1	112.700	488.273
4681	4641	4682	1	107.800	276.144
4627	4632	4631	1	120.000	527.184
4617	4616	4619	1	122.000	669.440
4619	4625	4626	1	111.000	627.600
4608	4607	4662	1	120.000	292.880
4601	4602	4659	1	120.000	292.880
4593	4601	4602	1	120.000	527.184
4630	4629	4669	1	120.000	292.880
4594	4593	4601	1	120.000	527.184
4644	4585	4646	1	107.800	276.144
4613	4612	4665	1	120.000	292.880
4594	4600	4599	1	120.000	527.184
4628	4627	4632	1	120.000	527.184
4620	4619	4625	1	120.000	585.760
4600	4599	4656	1	120.000	292.880
4606	4605	4661	1	120.000	292.880
4634	4633	4636	1	109.100	644.336
4625	4626	4633	1	109.500	418.400
4643	4642	4683	1	120.000	292.880
4676	4639	4677	1	107.800	276.144
4590	4602	4601	1	120.000	527.184
4595	4594	4600	1	120.000	527.184
4638	4637	4673	1	110.700	313.800
4627	4626	4633	1	114.000	527.184
4629	4628	4668	1	120.000	292.880
4625	4626	4627	1	109.500	418.400
4631	4632	4672	1	120.000	292.880
4673	4637	4674	1	107.800	276.144
4592	4591	4651	1	120.000	292.880
4675	4639	4677	1	107.800	276.144
4588	4587	4648	1	110.700	313.800
4612	4611	4637	1	124.000	585.760
4634	4633	4635	1	109.100	644.336
4588	4587	4647	1	110.700	313.800
4675	4639	4676	1	107.800	276.144
4607	4606	4642	1	124.000	585.760
4616	4615	4626	1	124.000	585.760
4604	4603	4643	1	120.000	527.184
4639	4638	4640	1	112.700	488.273
4599	4600	4657	1	120.000	292.880
4615	4626	4625	1	109.500	418.400
4637	4638	4641	1	112.700	488.273
4609	4641	4638	1	111.100	527.184
4649	4588	4650	1	107.800	276.144
4635	4633	4636	1	109.100	644.336
4644	4585	4645	1	107.800	276.144
4597	4596	4654	1	120.000	292.880
4614	4613	4666	1	120.000	292.880
4678	4640	4680	1	107.800	276.144
4647	4587	4648	1	107.800	276.144
4587	4586	4603	1	116.000	418.400
4639	4638	4641	1	112.700	488.273
4611	4610	4664	1	122.260	502.080
4593	4592	4652	1	120.000	292.880
4638	4641	4682	1	110.700	313.800
4678	4640	4679	1	107.800	276.144
4609	4608	4663	1	120.000	292.880
4615	4614	4667	1	123.300	292.880
4631	4630	4670	1	120.000	292.880
4597	4599	4600	1	120.000	527.184
4685	4686	4687	1	107.200	433.462
4686	4687	4688	1	109.470	470.282
4687	4688	4689	1	109.500	418.400
4688	4689	4690	1	111.000	627.600
4689	4690	4691	1	120.000	585.760
4690	4691	4692	1	120.000	527.184
4691	4692	4693	1	120.000	527.184
4692	4693	4694	1	120.000	527.184
4693	4694	4695	1	120.000	527.184
4694	4695	4696	1	120.000	527.184
4695	4696	4697	1	120.000	527.184
4696	4697	4698	1	109.5	0.0
4696	4697	4699	1	120.000	527.184
4693	4694	4700	1	120.000	527.184
4692	4693	4701	1	120.000	527.184
4689	4690	4702	1	120.000	585.760
4685	4686	4703	1	116.000	418.400
4686	4703	4704	1	120.000	585.760
4703	4704	4705	1	120.000	527.184
4704	4705	4706	1	120.000	527.184
4705	4706	4707	1	124.000	585.760
4706	4707	4708	1	117.000	711.280
4707	4708	4709	1	124.000	585.760
4708	4709	4710	1	124.000	585.760
4709	4710	4711	1	124.000	585.760
4710	4711	4712	1	124.000	585.760
4711	4712	4713	1	124.000	585.760
4712	4713	4714	1	124.000	585.760
4713	4714	4715	1	117.000	711.280
4714	4715	4716	1	118.760	505.678
4715	4716	4717	1	124.000	585.760
4716	4717	4718	1	180.000	1255.200
4715	4716	4719	1	117.000	711.280
4716	4719	4720	1	124.000	585.760
4719	4720	4721	1	122.000	669.440
4720	4721	4722	1	180.000	1255.200
4719	4720	4723	1	122.000	669.440
4720	4723	4724	1	180.000	1255.200
4716	4719	4725	1	110.000	585.760
4714	4715	4726	1	124.000	585.760
4715	4726	4727	1	109.500	334.720
4726	4727	4728	1	120.000	585.760
4727	4728	4729	1	120.000	527.184
4728	4729	4730	1	120.000	527.184
4729	4730	4731	1	120.000	527.184
4726	4727	4732	1	120.000	585.760
4715	4726	4733	1	111.100	527.184
4726	4733	4734	1	109.500	418.400
4726	4733	4735	1	109.500	418.400
4726	4733	4736	1	109.500	418.400
4710	4711	4737	1	124.000	585.760
4711	4737	4738	1	111.100	527.184
4737	4738	4739	1	112.700	488.273
4737	4738	4740	1	112.700	488.273
4708	4709	4741	1	124.000	585.760
4705	4706	4742	1	120.000	527.184
4686	4703	4743	1	120.000	585.760
4686	4685	4744	1	109.500	292.880
4686	4685	4745	1	109.500	292.880
4686	4685	4746	1	109.500	292.880
4686	4687	4747	1	109.500	292.880
4686	4687	4748	1	109.500	292.880
4687	4688	4749	1	110.700	313.800
4687	4688	4750	1	110.700	313.800
4690	4691	4751	1	120.000	292.880
4691	4692	4752	1	120.000	292.880
4694	4695	4753	1	120.000	292.880
4695	4696	4754	1	120.000	292.880
4697	4698	4755	1	109.5	0.0
4697	4699	4756	1	120.000	292.880
4694	4700	4757	1	120.000	292.880
4693	4701	4758	1	120.000	292.880
4690	4702	4759	1	120.000	292.880
4703	4704	4760	1	120.000	292.880
4704	4705	4761	1	120.000	292.880
4706	4707	4762	1	123.300	292.880
4707	4708	4763	1	120.000	292.880
4709	4710	4764	1	122.260	502.080
4711	4712	4765	1	120.000	292.880
4712	4713	4766	1	120.000	292.880
4713	4714	4767	1	120.000	292.880
4727	4728	4768	1	120.000	292.880
4728	4729	4769	1	120.000	292.880
4729	4730	4770	1	120.000	292.880
4730	4731	4771	1	120.000	292.880
4727	4732	4772	1	120.000	292.880
4711	4737	4773	1	109.500	292.880
4711	4737	4774	1	109.500	292.880
4738	4739	4775	1	110.700	313.800
4738	4739	4776	1	110.700	313.800
4738	4739	4777	1	110.700	313.800
4738	4740	4778	1	110.700	313.800
4738	4740	4779	1	110.700	313.800
4738	4740	4780	1	110.700	313.800
4709	4741	4781	1	109.500	292.880
4709	4741	4782	1	109.500	292.880
4706	4742	4783	1	120.000	292.880
4703	4743	4784	1	120.000	292.880
4702	4701	4758	1	120.000	292.880
4706	4742	4743	1	120.000	527.184
4691	4690	4702	1	120.000	527.184
4738	4737	4774	1	110.700	313.800
4705	4704	4760	1	120.000	292.880
4742	4743	4784	1	120.000	292.880
4703	4743	4742	1	120.000	527.184
4730	4731	4732	1	120.000	527.184
4745	4685	4746	1	107.800	276.144
4698	4697	4699	1	109.5	0.0
4710	4709	4741	1	124.000	585.760
4738	4741	4781	1	110.700	313.800
4696	4695	4753	1	120.000	292.880
4732	4731	4771	1	120.000	292.880
4779	4740	4780	1	107.800	276.144
4721	4720	4723	1	118.760	505.678
4689	4688	4750	1	109.500	292.880
4689	4688	4749	1	109.500	292.880
4740	4738	4741	1	112.700	488.273
4781	4741	4782	1	107.800	276.144
4727	4732	4731	1	120.000	527.184
4717	4716	4719	1	122.000	669.440
4719	4725	4726	1	111.000	627.600
4708	4707	4762	1	120.000	292.880
4701	4702	4759	1	120.000	292.880
4693	4701	4702	1	120.000	527.184
4730	4729	4769	1	120.000	292.880
4694	4693	4701	1	120.000	527.184
4744	4685	4746	1	107.800	276.144
4713	4712	4765	1	120.000	292.880
4694	4700	4699	1	120.000	527.184
4728	4727	4732	1	120.000	527.184
4720	4719	4725	1	120.000	585.760
4700	4699	4756	1	120.000	292.880
4706	4705	4761	1	120.000	292.880
4734	4733	4736	1	109.100	644.336
4725	4726	4733	1	109.500	418.400
4743	4742	4783	1	120.000	292.880
4776	4739	4777	1	107.800	276.144
4690	4702	4701	1	120.000	527.184
4695	4694	4700	1	120.000	527.184
4738	4737	4773	1	110.700	313.800
4727	4726	4733	1	114.000	527.184
4729	4728	4768	1	120.000	292.880
4725	4726	4727	1	109.500	418.400
4731	4732	4772	1	120.000	292.880
4773	4737	4774	1	107.800	276.144
4692	4691	4751	1	120.000	292.880
4775	4739	4777	1	107.800	276.144
4688	4687	4748	1	110.700	313.800
4712	4711	4737	1	124.000	585.760
4734	4733	4735	1	109.100	644.336
4688	4687	4747	1	110.700	313.800
4775	4739	4776	1	107.800	276.144
4707	4706	4742	1	124.000	585.760
4716	4715	4726	1	124.000	585.760
4704	4703	4743	1	120.000	527.184
4739	4738	4740	1	112.700	488.273
4699	4700	4757	1	120.000	292.880
4715	4726	4725	1	109.500	418.400
4737	4738	4741	1	112.700	488.273
4709	4741	4738	1	111.100	527.184
4749	4688	4750	1	107.800	276.144
4735	4733	4736	1	109.100	644.336
4744	4685	4745	1	107.800	276.144
4697	4696	4754	1	120.000	292.880
4714	4713	4766	1	120.000	292.880
4778	4740	4780	1	107.800	276.144
4747	4687	4748	1	107.800	276.144
4687	4686	4703	1	116.000	418.400
4739	4738	4741	1	112.700	488.273
4711	4710	4764	1	122.260	502.080
4693	4692	4752	1	120.000	292.880
4738	4741	4782	1	110.700	313.800
4778	4740	4779	1	107.800	276.144
4709	4708	4763	1	120.000	292.880
4715	4714	4767	1	123.300	292.880
4731	4730	4770	1	120.000	292.880
4697	4699	4700	1	120.000	527.184
4785	4786	4787	1	107.200	433.462
4786	4787	4788	1	109.470	470.282
4787	4788	4789	1	109.500	418.400
4788	4789	4790	1	111.000	627.600
4789	4790	4791	1	120.000	585.760
4790	4791	4792	1	120.000	527.184
4791	4792	4793	1	120.000	527.184
4792	4793	4794	1	120.000	527.184
4793	4794	4795	1	120.000	527.184
4794	4795	4796	1	120.000	527.184
4795	4796	4797	1	120.000	527.184
4796	4797	4798	1	109.5	0.0
4796	4797	4799	1	120.000	527.184
4793	4794	4800	1	120.000	527.184
4792	4793	4801	1	120.000	527.184
4789	4790	4802	1	120.000	585.760
4785	4786	4803	1	116.000	418.400
4786	4803	4804	1	120.000	585.760
4803	4804	4805	1	120.000	527.184
4804	4805	4806	1	120.000	527.184
4805	4806	4807	1	124.000	585.760
4806	4807	4808	1	117.000	711.280
4807	4808	4809	1	124.000	585.760
4808	4809	4810	1	124.000	585.760
4809	4810	4811	1	124.000	585.760
4810	4811	4812	1	124.000	585.760
4811	4812	4813	1	124.000	585.760
4812	4813	4814	1	124.000	585.760
4813	4814	4815	1	117.000	711.280
4814	4815	4816	1	118.760	505.678
4815	4816	4817	1	124.000	585.760
4816	4817	4818	1	180.000	1255.200
4815	4816	4819	1	117.000	711.280
4816	4819	4820	1	124.000	585.760
4819	4820	4821	1	122.000	669.440
4820	4821	4822	1	180.000	1255.200
4819	4820	4823	1	122.000	669.440
4820	4823	4824	1	180.000	1255.200
4816	4819	4825	1	110.000	585.760
4814	4815	4826	1	124.000	585.760
4815	4826	4827	1	109.500	334.720
4826	4827	4828	1	120.000	585.760
4827	4828	4829	1	120.000	527.184
4828	4829	4830	1	120.000	527.184
4829	4830	4831	1	120.000	527.184
4826	4827	4832	1	120.000	585.760
4815	4826	4833	1	111.100	527.184
4826	4833	4834	1	109.500	418.400
4826	4833	4835	1	109.500	418.400
4826	4833	4836	1	109.500	418.400
4810	4811	4837	1	124.000	585.760
4811	4837	4838	1	111.100	527.184
4837	4838	4839	1	112.700	488.273
4837	4838	4840	1	112.700	488.273
4808	4809	4841	1	124.000	585.760
4805	4806	4842	1	120.000	527.184
4786	4803	4843	1	120.000	585.760
4786	4785	4844	1	109.500	292.880
4786	4785	4845	1	109.500	292.880
4786	4785	4846	1	109.500	292.880
4786	4787	4847	1	109.500	292.880
4786	4787	4848	1	109.500	292.880
4787	4788	4849	1	110.700	313.800
4787	4788	4850	1	110.700	313.800
4790	4791	4851	1	120.000	292.880
4791	4792	4852	1	120.000	292.880
4794	4795	4853	1	120.000	292.880
4795	4796	4854	1	120.000	292.880
4797	4798	4855	1	109.5	0.0
4797	4799	4856	1	120.000	292.880
4794	4800	4857	1	120.000	292.880
4793	4801	4858	1	120.000	292.880
4790	4802	4859	1	120.000	292.880
4803	4804	4860	1	120.000	292.880
4804	4805	4861	1	120.000	292.880
4806	4807	4862	1	123.300	292.880
4807	4808	4863	1	120.000	292.880
4809	4810	4864	1	122.260	502.080
4811	4812	4865	1	120.000	292.880
4812	4813	4866	1	120.000	292.880
4813	4814	4867	1	120.000	292.880
4827	4828	4868	1	120.000	292.880
4828	4829	4869	1	120.000	292.880
4829	4830	4870	1	120.000	292.880
4830	4831	4871	1	120.000	292.880
4827	4832	4872	1	120.000	292.880
4811	4837	4873	1	109.500	292.880
4811	4837	4874	1	109.500	292.880
4838	4839	4875	1	110.700	313.800
4838	4839	4876	1	110.700	313.800
4838	4839	4877	1	110.700	313.800
4838	4840	4878	1	110.700	313.800
4838	4840	4879	1	110.700	313.800
4838	4840	4880	1	110.700	313.800
4809	4841	4881	1	109.500	292.880
4809	4841	4882	1	109.500	292.880
4806	4842	4883	1	120.000	292.880
4803	4843	4884	1	120.000	292.880
4802	4801	4858	1	120.000	292.880
4806	4842	4843	1	120.000	527.184
4791	4790	4802	1	120.000	527.184
4838	4837	4874	1	110.700	313.800
4805	4804	4860	1	120.000	292.880
4842	4843	4884	1	120.000	292.880
4803	4843	4842	1	120.000	527.184
4830	4831	4832	1	120.000	527.184
4845	4785	4846	1	107.800	276.144
4798	4797	4799	1	109.5	0.0
4810	4809	4841	1	124.000	585.760
4838	4841	4881	1	110.700	313.800
4796	4795	4853	1	120.000	292.880
4832	4831	4871	1	120.000	292.880
4879	4840	4880	1	107.800	276.144
4821	4820	4823	1	118.760	505.678
4789	4788	4850	1	109.500	292.880
4789	4788	4849	1	109.500	292.880
4840	4838	4841	1	112.700	488.273
4881	4841	4882	1	107.800	276.144
4827	4832	4831	1	120.000	527.184
4817	4816	4819	1	122.000	669.440
4819	4825	4826	1	111.000	627.600
4808	4807	4862	1	120.000	292.880
4801	4802	4859	1	120.000	292.880
4793	4801	4802	1	120.000	527.184
4830	4829	4869	1	120.000	292.880
4794	4793	4801	1	120.000	527.184
4844	4785	4846	1	107.800	276.144
4813	4812	4865	1	120.000	292.880
4794	4800	4799	1	120.000	527.184
4828	4827	4832	1	120.000	527.184
4820	4819	4825	1	120.000	585.760
4800	4799	4856	1	120.000	292.880
4806	4805	4861	1	120.000	292.880
4834	4833	4836	1	109.100	644.336
4825	4826	4833	1	109.500	418.400
4843	4842	4883	1	120.000	292.880
4876	4839	4877	1	107.800	276.144
4790	4802	4801	1	120.000	527.184
4795	4794	4800	1	120.000	527.184
4838	4837	4873	1	110.700	313.800
4827	4826	4833	1	114.000	527.184
4829	4828	4868	1	120.000	292.880
4825	4826	4827	1	109.500	418.400
4831	4832	4872	1	120.000	292.880
4873	4837	4874	1	107.800	276.144
4792	4791	4851	1	120.000	292.880
4875	4839	4877	1	107.800	276.144
4788	4787	4848	1	110.700	313.800
4812	4811	4837	1	124.000	585.760
4834	4833	4835	1	109.100	644.336
4788	4787	4847	1	110.700	313.800
4875	4839	4876	1	107.800	276.144
4807	4806	4842	1	124.000	585.760
4816	4815	4826	1	124.000	585.760
4804	4803	4843	1	120.000	527.184
4839	4838	4840	1	112.700	488.273
4799	4800	4857	1	120.000	292.880
4815	4826	4825	1	109.500	418.400
4837	4838	4841	1	112.700	488.273
4809	4841	4838	1	111.100	527.184
4849	4788	4850	1	107.800	276.144
4835	4833	4836	1	109.100	644.336
4844	4785	4845	1	107.800	276.144
4797	4796	4854	1	120.000	292.880
4814	4813	4866	1	120.000	292.880
4878	4840	4880	1	107.800	276.144
4847	4787	4848	1	107.800	276.144
4787	4786	4803	1	116.000	418.400
4839	4838	4841	1	112.700	488.273
4811	4810	4864	1	122.260	502.080
4793	4792	4852	1	120.000	292.880
4838	4841	4882	1	110.700	313.800
4878	4840	4879	1	107.800	276.144
4809	4808	4863	1	120.000	292.880
4815	4814	4867	1	123.300	292.880
4831	4830	4870	1	120.000	292.880
4797	4799	4800	1	120.000	527.184
4885	4886	4887	1	107.200	433.462
4886	4887	4888	1	109.470	470.282
4887	4888	4889	1	109.500	418.400
4888	4889	4890	1	111.000	627.600
4889	4890	4891	1	120.000	585.760
4890	4891	4892	1	120.000	527.184
4891	4892	4893	1	120.000	527.184
4892	4893	4894	1	120.000	527.184
4893	4894	4895	1	120.000	527.184
4894	4895	4896	1	120.000	527.184
4895	4896	4897	1	120.000	527.184
4896	4897	4898	1	109.5	0.0
4896	4897	4899	1	120.000	527.184
4893	4894	4900	1	120.000	527.184
4892	4893	4901	1	120.000	527.184
4889	4890	4902	1	120.000	585.760
4885	4886	4903	1	116.000	418.400
4886	4903	4904	1	120.000	585.760
4903	4904	4905	1	120.000	527.184
4904	4905	4906	1	120.000	527.184
4905	4906	4907	1	124.000	585.760
4906	4907	4908	1	117.000	711.280
4907	4908	4909	1	124.000	585.760
4908	4909	4910	1	124.000	585.760
4909	4910	4911	1	124.000	585.760
4910	4911	4912	1	124.000	585.760
4911	4912	4913	1	124.000	585.760
4912	4913	4914	1	124.000	585.760
4913	4914	4915	1	117.000	711.280
4914	4915	4916	1	118.760	505.678
4915	4916	4917	1	124.000	585.760
4916	4917	4918	1	180.000	1255.200
4915	4916	4919	1	117.000	711.280
4916	4919	4920	1	124.000	585.760
4919	4920	4921	1	122.000	669.440
4920	4921	4922	1	180.000	1255.200
4919	4920	4923	1	122.000	669.440
4920	4923	4924	1	180.000	1255.200
4916	4919	4925	1	110.000	585.760
4914	4915	4926	1	124.000	585.760
4915	4926	4927	1	109.500	334.720
4926	4927	4928	1	120.000	585.760
4927	4928	4929	1	120.000	527.184
4928	4929	4930	1	120.000	527.184
4929	4930	4931	1	120.000	527.184
4926	4927	4932	1	120.000	585.760
4915	4926	4933	1	111.100	527.184
4926	4933	4934	1	109.500	418.400
4926	4933	4935	1	109.500	418.400
4926	4933	4936	1	109.500	418.400
4910	4911	4937	1	124.000	585.760
4911	4937	4938	1	111.100	527.184
4937	4938	4939	1	112.700	488.273
4937	4938	4940	1	112.700	488.273
4908	4909	4941	1	124.000	585.760
4905	4906	4942	1	120.000	527.184
4886	4903	4943	1	120.000	585.760
4886	4885	4944	1	109.500	292.880
4886	4885	4945	1	109.500	292.880
4886	4885	4946	1	109.500	292.880
4886	4887	4947	1	109.500	292.880
4886	4887	4948	1	109.500	292.880
4887	4888	4949	1	110.700	313.800
4887	4888	4950	1	110.700	313.800
4890	4891	4951	1	120.000	292.880
4891	4892	4952	1	120.000	292.880
4894	4895	4953	1	120.000	292.880
4895	4896	4954	1	120.000	292.880
4897	4898	4955	1	109.5	0.0
4897	4899	4956	1	120.000	292.880
4894	4900	4957	1	120.000	292.880
4893	4901	4958	1	120.000	292.880
4890	4902	4959	1	120.000	292.880
4903	4904	4960	1	120.000	292.880
4904	4905	4961	1	120.000	292.880
4906	4907	4962	1	123.300	292.880
4907	4908	4963	1	120.000	292.880
4909	4910	4964	1	122.260	502.080
4911	4912	4965	1	120.000	292.880
4912	4913	4966	1	120.000	292.880
4913	4914	4967	1	120.000	292.880
4927	4928	4968	1	120.000	292.880
4928	4929	4969	1	120.000	292.880
4929	4930	4970	1	120.000	292.880
4930	4931	4971	1	120.000	292.880
4927	4932	4972	1	120.000	292.880
4911	4937	4973	1	109.500	292.880
4911	4937	4974	1	109.500	292.880
4938	4939	4975	1	110.700	313.800
4938	4939	4976	1	110.700	313.800
4938	4939	4977	1	110.700	313.800
4938	4940	4978	1	110.700	313.800
4938	4940	4979	1	110.700	313.800
4938	4940	4980	1	110.700	313.800
4909	4941	4981	1	109.500	292.880
4909	4941	4982	1	109.500	292.880
4906	4942	4983	1	120.000	292.880
4903	4943	4984	1	120.000	292.880
4902	4901	4958	1	120.000	292.880
4906	4942	4943	1	120.000	527.184
4891	4890	4902	1	120.000	527.184
4938	4937	4974	1	110.700	313.800
4905	4904	4960	1	120.000	292.880
4942	4943	4984	1	120.000	292.880
4903	4943	4942	1	120.000	527.184
4930	4931	4932	1	120.000	527.184
4945	4885	4946	1	107.800	276.144
4898	4897	4899	1	109.5	0.0
4910	4909	4941	1	124.000	585.760
4938	4941	4981	1	110.700	313.800
4896	4895	4953	1	120.000	292.880
4932	4931	4971	1	120.000	292.880
4979	4940	4980	1	107.800	276.144
4921	4920	4923	1	118.760	505.678
4889	4888	4950	1	109.500	292.880
4889	4888	4949	1	109.500	292.880
4940	4938	4941	1	112.700	488.273
4981	4941	4982	1	107.800	276.144
4927	4932	4931	1	120.000	527.184
4917	4916	4919	1	122.000	669.440
4919	4925	4926	1	111.000	627.600
4908	4907	4962	1	120.000	292.880
4901	4902	4959	1	120.000	292.880
4893	4901	4902	1	120.000	527.184
4930	4929	4969	1	120.000	292.880
4894	4893	4901	1	120.000	527.184
4944	4885	4946	1	107.800	276.144
4913	4912	4965	1	120.000	292.880
4894	4900	4899	1	120.000	527.184
4928	4927	4932	1	120.000	527.184
4920	4919	4925	1	120.000	585.760
4900	4899	4956	1	120.000	292.880
4906	4905	4961	1	120.000	292.880
4934	4933	4936	1	109.100	644.336
4925	4926	4933	1	109.500	418.400
4943	4942	4983	1	120.000	292.880
4976	4939	4977	1	107.800	276.144
4890	4902	4901	1	120.000	527.184
4895	4894	4900	1	120.000	527.184
4938	4937	4973	1	110.700	313.800
4927	4926	4933	1	114.000	527.184
4929	4928	4968	1	120.000	292.880
4925	4926	4927	1	109.500	418.400
4931	4932	4972	1	120.000	292.880
4973	4937	4974	1	107.800	276.144
4892	4891	4951	1	120.000	292.880
4975	4939	4977	1	107.800	276.144
4888	4887	4948	1	110.700	313.800
4912	4911	4937	1	124.000	585.760
4934	4933	4935	1	109.100	644.336
4888	4887	4947	1	110.700	313.800
4975	4939	4976	1	107.800	276.144
4907	4906	4942	1	124.000	585.760
4916	4915	4926	1	124.000	585.760
4904	4903	4943	1	120.000	527.184
4939	4938	4940	1	112.700	488.273
4899	4900	4957	1	120.000	292.880
4915	4926	4925	1	109.500	418.400
4937	4938	4941	1	112.700	488.273
4909	4941	4938	1	111.100	527.184
4949	4888	4950	1	107.800	276.144
4935	4933	4936	1	109.100	644.336
4944	4885	4945	1	107.800	276.144
4897	4896	4954	1	120.000	292.880
4914	4913	4966	1	120.000	292.880
4978	4940	4980	1	107.800	276.144
4947	4887	4948	1	107.800	276.144
4887	4886	4903	1	116.000	418.400
4939	4938	4941	1	112.700	488.273
4911	4910	4964	1	122.260	502.080
4893	4892	4952	1	120.000	292.880
4938	4941	4982	1	110.700	313.800
4978	4940	4979	1	107.800	276.144
4909	4908	4963	1	120.000	292.880
4915	4914	4967	1	123.300	292.880
4931	4930	4970	1	120.000	292.880
4897	4899	4900	1	120.000	527.184
4985	4986	4987	1	107.200	433.462
4986	4987	4988	1	109.470	470.282
4987	4988	4989	1	109.500	418.400
4988	4989	4990	1	111.000	627.600
4989	4990	4991	1	120.000	585.760
4990	4991	4992	1	120.000	527.184
4991	4992	4993	1	120.000	527.184
4992	4993	4994	1	120.000	527.184
4993	4994	4995	1	120.000	527.184
4994	4995	4996	1	120.000	527.184
4995	4996	4997	1	120.000	527.184
4996	4997	4998	1	109.5	0.0
4996	4997	4999	1	120.000	527.184
4993	4994	5000	1	120.000	527.184
4992	4993	5001	1	120.000	527.184
4989	4990	5002	1	120.000	585.760
4985	4986	5003	1	116.000	418.400
4986	5003	5004	1	120.000	585.760
5003	5004	5005	1	120.000	527.184
5004	5005	5006	1	120.000	527.184
5005	5006	5007	1	124.000	585.760
5006	5007	5008	1	117.000	711.280
5007	5008	5009	1	124.000	585.760
5008	5009	5010	1	124.000	585.760
5009	5010	5011	1	124.000	585.760
5010	5011	5012	1	124.000	585.760
5011	5012	5013	1	124.000	585.760
5012	5013	5014	1	124.000	585.760
5013	5014	5015	1	117.000	711.280
5014	5015	5016	1	118.760	505.678
5015	5016	5017	1	124.000	585.760
5016	5017	5018	1	180.000	1255.200
5015	5016	5019	1	117.000	711.280
5016	5019	5020	1	124.000	585.760
5019	5020	5021	1	122.000	669.440
5020	5021	5022	1	180.000	1255.200
5019	5020	5023	1	122.000	669.440
5020	5023	5024	1	180.000	1255.200
5016	5019	5025	1	110.000	585.760
5014	5015	5026	1	124.000	585.760
5015	5026	5027	1	109.500	334.720
5026	5027	5028	1	120.000	585.760
5027	5028	5029	1	120.000	527.184
5028	5029	5030	1	120.000	527.184
5029	5030	5031	1	120.000	527.184
5026	5027	5032	1	120.000	585.760
5015	5026	5033	1	111.100	527.184
5026	5033	5034	1	109.500	418.400
5026	5033	5035	1	109.500	418.400
5026	5033	5036	1	109.500	418.400
5010	5011	5037	1	124.000	585.760
5011	5037	5038	1	111.100	527.184
5037	5038	5039	1	112.700	488.273
5037	5038	5040	1	112.700	488.273
5008	5009	5041	1	124.000	585.760
5005	5006	5042	1	120.000	527.184
4986	5003	5043	1	120.000	585.760
4986	4985	5044	1	109.500	292.880
4986	4985	5045	1	109.500	292.880
4986	4985	5046	1	109.500	292.880
4986	4987	5047	1	109.500	292.880
4986	4987	5048	1	109.500	292.880
4987	4988	5049	1	110.700	313.800
4987	4988	5050	1	110.700	313.800
4990	4991	5051	1	120.000	292.880
4991	4992	5052	1	120.000	292.880
4994	4995	5053	1	120.000	292.880
4995	4996	5054	1	120.000	292.880
4997	4998	5055	1	109.5	0.0
4997	4999	5056	1	120.000	292.880
4994	5000	5057	1	120.000	292.880
4993	5001	5058	1	120.000	292.880
4990	5002	5059	1	120.000	292.880
5003	5004	5060	1	120.000	292.880
5004	5005	5061	1	120.000	292.880
5006	5007	5062	1	123.300	292.880
5007	5008	5063	1	120.000	292.880
5009	5010	5064	1	122.260	502.080
5011	5012	5065	1	120.000	292.880
5012	5013	5066	1	120.000	292.880
5013	5014	5067	1	120.000	292.880
5027	5028	5068	1	120.000	292.880
5028	5029	5069	1	120.000	292.880
5029	5030	5070	1	120.000	292.880
5030	5031	5071	1	120.000	292.880
5027	5032	5072	1	120.000	292.880
5011	5037	5073	1	109.500	292.880
5011	5037	5074	1	109.500	292.880
5038	5039	5075	1	110.700	313.800
5038	5039	5076	1	110.700	313.800
5038	5039	5077	1	110.700	313.800
5038	5040	5078	1	110.700	313.800
5038	5040	5079	1	110.700	313.800
5038	5040	5080	1	110.700	313.800
5009	5041	5081	1	109.500	292.880
5009	5041	5082	1	109.500	292.880
5006	5042	5083	1	120.000	292.880
5003	5043	5084	1	120.000	292.880
5002	5001	5058	1	120.000	292.880
5006	5042	5043	1	120.000	527.184
4991	4990	5002	1	120.000	527.184
5038	5037	5074	1	110.700	313.800
5005	5004	5060	1	120.000	292.880
5042	5043	5084	1	120.000	292.880
5003	5043	5042	1	120.000	527.184
5030	5031	5032	1	120.000	527.184
5045	4985	5046	1	107.800	276.144
4998	4997	4999	1	109.5	0.0
5010	5009	5041	1	124.000	585.760
5038	5041	5081	1	110.700	313.800
4996	4995	5053	1	120.000	292.880
5032	5031	5071	1	120.000	292.880
5079	5040	5080	1	107.800	276.144
5021	5020	5023	1	118.760	505.678
4989	4988	5050	1	109.500	292.880
4989	4988	5049	1	109.500	292.880
5040	5038	5041	1	112.700	488.273
5081	5041	5082	1	107.800	276.144
5027	5032	5031	1	120.000	527.184
5017	5016	5019	1	122.000	669.440
5019	5025	5026	1	111.000	627.600
5008	5007	5062	1	120.000	292.880
5001	5002	5059	1	120.000	292.880
4993	5001	5002	1	120.000	527.184
5030	5029	5069	1	120.000	292.880
4994	4993	5001	1	120.000	527.184
5044	4985	5046	1	107.800	276.144
5013	5012	5065	1	120.000	292.880
4994	5000	4999	1	120.000	527.184
5028	5027	5032	1	120.000	527.184
5020	5019	5025	1	120.000	585.760
5000	4999	5056	1	120.000	292.880
5006	5005	5061	1	120.000	292.880
5034	5033	5036	1	109.100	644.336
5025	5026	5033	1	109.500	418.400
5043	5042	5083	1	120.000	292.880
5076	5039	5077	1	107.800	276.144
4990	5002	5001	1	120.000	527.184
4995	4994	5000	1	120.000	527.184
5038	5037	5073	1	110.700	313.800
5027	5026	5033	1	114.000	527.184
5029	5028	5068	1	120.000	292.880
5025	5026	5027	1	109.500	418.400
5031	5032	5072	1	120.000	292.880
5073	5037	5074	1	107.800	276.144
4992	4991	5051	1	120.000	292.880
5075	5039	5077	1	107.800	276.144
4988	4987	5048	1	110.700	313.800
5012	5011	5037	1	124.000	585.760
5034	5033	5035	1	109.100	644.336
4988	4987	5047	1	110.700	313.800
5075	5039	5076	1	107.800	276.144
5007	5006	5042	1	124.000	585.760
5016	5015	5026	1	124.000	585.760
5004	5003	5043	1	120.000	527.184
5039	5038	5040	1	112.700	488.273
4999	5000	5057	1	120.000	292.880
5015	5026	5025	1	109.500	418.400
5037	5038	5041	1	112.700	488.273
5009	5041	5038	1	111.100	527.184
5049	4988	5050	1	107.800	276.144
5035	5033	5036	1	109.100	644.336
5044	4985	5045	1	107.800	276.144
4997	4996	5054	1	120.000	292.880
5014	5013	5066	1	120.000	292.880
5078	5040	5080	1	107.800	276.144
5047	4987	5048	1	107.800	276.144
4987	4986	5003	1	116.000	418.400
5039	5038	5041	1	112.700	488.273
5011	5010	5064	1	122.260	502.080
4993	4992	5052	1	120.000	292.880
5038	5041	5082	1	110.700	313.800
5078	5040	5079	1	107.800	276.144
5009	5008	5063	1	120.000	292.880
5015	5014	5067	1	123.300	292.880
5031	5030	5070	1	120.000	292.880
4997	4999	5000	1	120.000	527.184
5085	5086	5087	1	107.200	433.462
5086	5087	5088	1	109.470	470.282
5087	5088	5089	1	109.500	418.400
5088	5089	5090	1	111.000	627.600
5089	5090	5091	1	120.000	585.760
5090	5091	5092	1	120.000	527.184
5091	5092	5093	1	120.000	527.184
5092	5093	5094	1	120.000	527.184
5093	5094	5095	1	120.000	527.184
5094	5095	5096	1	120.000	527.184
5095	5096	5097	1	120.000	527.184
5096	5097	5098	1	109.5	0.0
5096	5097	5099	1	120.000	527.184
5093	5094	5100	1	120.000	527.184
5092	5093	5101	1	120.000	527.184
5089	5090	5102	1	120.000	585.760
5085	5086	5103	1	116.000	418.400
5086	5103	5104	1	120.000	585.760
5103	5104	5105	1	120.000	527.184
5104	5105	5106	1	120.000	527.184
5105	5106	5107	1	124.000	585.760
5106	5107	5108	1	117.000	711.280
5107	5108	5109	1	124.000	585.760
5108	5109	5110	1	124.000	585.760
5109	5110	5111	1	124.000	585.760
5110	5111	5112	1	124.000	585.760
5111	5112	5113	1	124.000	585.760
5112	5113	5114	1	124.000	585.760
5113	5114	5115	1	117.000	711.280
5114	5115	5116	1	118.760	505.678
5115	5116	5117	1	124.000	585.760
5116	5117	5118	1	180.000	1255.200
5115	5116	5119	1	117.000	711.280
5116	5119	5120	1	124.000	585.760
5119	5120	5121	1	122.000	669.440
5120	5121	5122	1	180.000	1255.200
5119	5120	5123	1	122.000	669.440
5120	5123	5124	1	180.000	1255.200
5116	5119	5125	1	110.000	585.760
5114	5115	5126	1	124.000	585.760
5115	5126	5127	1	109.500	334.720
5126	5127	5128	1	120.000	585.760
5127	5128	5129	1	120.000	527.184
5128	5129	5130	1	120.000	527.184
5129	5130	5131	1	120.000	527.184
5126	5127	5132	1	120.000	585.760
5115	5126	5133	1	111.100	527.184
5126	5133	5134	1	109.500	418.400
5126	5133	5135	1	109.500	418.400
5126	5133	5136	1	109.500	418.400
5110	5111	5137	1	124.000	585.760
5111	5137	5138	1	111.100	527.184
5137	5138	5139	1	112.700	488.273
5137	5138	5140	1	112.700	488.273
5108	5109	5141	1	124.000	585.760
5105	5106	5142	1	120.000	527.184
5086	5103	5143	1	120.000	585.760
5086	5085	5144	1	109.500	292.880
5086	5085	5145	1	109.500	292.880
5086	5085	5146	1	109.500	292.880
5086	5087	5147	1	109.500	292.880
5086	5087	5148	1	109.500	292.880
5087	5088	5149	1	110.700	313.800
5087	5088	5150	1	110.700	313.800
5090	5091	5151	1	120.000	292.880
5091	5092	5152	1	120.000	292.880
5094	5095	5153	1	120.000	292.880
5095	5096	5154	1	120.000	292.880
5097	5098	5155	1	109.5	0.0
5097	5099	5156	1	120.000	292.880
5094	5100	5157	1	120.000	292.880
5093	5101	5158	1	120.000	292.880
5090	5102	5159	1	120.000	292.880
5103	5104	5160	1	120.000	292.880
5104	5105	5161	1	120.000	292.880
5106	5107	5162	1	123.300	292.880
5107	5108	5163	1	120.000	292.880
5109	5110	5164	1	122.260	502.080
5111	5112	5165	1	120.000	292.880
5112	5113	5166	1	120.000	292.880
5113	5114	5167	1	120.000	292.880
5127	5128	5168	1	120.000	292.880
5128	5129	5169	1	120.000	292.880
5129	5130	5170	1	120.000	292.880
5130	5131	5171	1	120.000	292.880
5127	5132	5172	1	120.000	292.880
5111	5137	5173	1	109.500	292.880
5111	5137	5174	1	109.500	292.880
5138	5139	5175	1	110.700	313.800
5138	5139	5176	1	110.700	313.800
5138	5139	5177	1	110.700	313.800
5138	5140	5178	1	110.700	313.800
5138	5140	5179	1	110.700	313.800
5138	5140	5180	1	110.700	313.800
5109	5141	5181	1	109.500	292.880
5109	5141	5182	1	109.500	292.880
5106	5142	5183	1	120.000	292.880
5103	5143	5184	1	120.000	292.880
5102	5101	5158	1	120.000	292.880
5106	5142	5143	1	120.000	527.184
5091	5090	5102	1	120.000	527.184
5138	5137	5174	1	110.700	313.800
5105	5104	5160	1	120.000	292.880
5142	5143	5184	1	120.000	292.880
5103	5143	5142	1	120.000	527.184
5130	5131	5132	1	120.000	527.184
5145	5085	5146	1	107.800	276.144
5098	5097	5099	1	109.5	0.0
5110	5109	5141	1	124.000	585.760
5138	5141	5181	1	110.700	313.800
5096	5095	5153	1	120.000	292.880
5132	5131	5171	1	120.000	292.880
5179	5140	5180	1	107.800	276.144
5121	5120	5123	1	118.760	505.678
5089	5088	5150	1	109.500	292.880
5089	5088	5149	1	109.500	292.880
5140	5138	5141	1	112.700	488.273
5181	5141	5182	1	107.800	276.144
5127	5132	5131	1	120.000	527.184
5117	5116	5119	1	122.000	669.440
5119	5125	5126	1	111.000	627.600
5108	5107	5162	1	120.000	292.880
5101	5102	5159	1	120.000	292.880
5093	5101	5102	1	120.000	527.184
5130	5129	5169	1	120.000	292.880
5094	5093	5101	1	120.000	527.184
5144	5085	5146	1	107.800	276.144
5113	5112	5165	1	120.000	292.880
5094	5100	5099	1	120.000	527.184
5128	5127	5132	1	120.000	527.184
5120	5119	5125	1	120.000	585.760
5100	5099	5156	1	120.000	292.880
5106	5105	5161	1	120.000	292.880
5134	5133	5136	1	109.100	644.336
5125	5126	5133	1	109.500	418.400
5143	5142	5183	1	120.000	292.880
5176	5139	5177	1	107.800	276.144
5090	5102	5101	1	120.000	527.184
5095	5094	5100	1	120.000	527.184
5138	5137	5173	1	110.700	313.800
5127	5126	5133	1	114.000	527.184
5129	5128	5168	1	120.000	292.880
5125	5126	5127	1	109.500	418.400
5131	5132	5172	1	120.000	292.880
5173	5137	5174	1	107.800	276.144
5092	5091	5151	1	120.000	292.880
5175	5139	5177	1	107.800	276.144
5088	5087	5148	1	110.700	313.800
5112	5111	5137	1	124.000	585.760
5134	5133	5135	1	109.100	644.336
5088	5087	5147	1	110.700	313.800
5175	5139	5176	1	107.800	276.144
5107	5106	5142	1	124.000	585.760
5116	5115	5126	1	124.000	585.760
5104	5103	5143	1	120.000	527.184
5139	5138	5140	1	112.700	488.273
5099	5100	5157	1	120.000	292.880
5115	5126	5125	1	109.500	418.400
5137	5138	5141	1	112.700	488.273
5109	5141	5138	1	111.100	527.184
5149	5088	5150	1	107.800	276.144
5135	5133	5136	1	109.100	644.336
5144	5085	5145	1	107.800	276.144
5097	5096	5154	1	120.000	292.880
5114	5113	5166	1	120.000	292.880
5178	5140	5180	1	107.800	276.144
5147	5087	5148	1	107.800	276.144
5087	5086	5103	1	116.000	418.400
5139	5138	5141	1	112.700	488.273
5111	5110	5164	1	122.260	502.080
5093	5092	5152	1	120.000	292.880
5138	5141	5182	1	110.700	313.800
5178	5140	5179	1	107.800	276.144
5109	5108	5163	1	120.000	292.880
5115	5114	5167	1	123.300	292.880
5131	5130	5170	1	120.000	292.880
5097	5099	5100	1	120.000	527.184
5185	5186	5187	1	107.200	433.462
5186	5187	5188	1	109.470	470.282
5187	5188	5189	1	109.500	418.400
5188	5189	5190	1	111.000	627.600
5189	5190	5191	1	120.000	585.760
5190	5191	5192	1	120.000	527.184
5191	5192	5193	1	120.000	527.184
5192	5193	5194	1	120.000	527.184
5193	5194	5195	1	120.000	527.184
5194	5195	5196	1	120.000	527.184
5195	5196	5197	1	120.000	527.184
5196	5197	5198	1	109.5	0.0
5196	5197	5199	1	120.000	527.184
5193	5194	5200	1	120.000	527.184
5192	5193	5201	1	120.000	527.184
5189	5190	5202	1	120.000	585.760
5185	5186	5203	1	116.000	418.400
5186	5203	5204	1	120.000	585.760
5203	5204	5205	1	120.000	527.184
5204	5205	5206	1	120.000	527.184
5205	5206	5207	1	124.000	585.760
5206	5207	5208	1	117.000	711.280
5207	5208	5209	1	124.000	585.760
5208	5209	5210	1	124.000	585.760
5209	5210	5211	1	124.000	585.760
5210	5211	5212	1	124.000	585.760
5211	5212	5213	1	124.000	585.760
5212	5213	5214	1	124.000	585.760
5213	5214	5215	1	117.000	711.280
5214	5215	5216	1	118.760	505.678
5215	5216	5217	1	124.000	585.760
5216	5217	5218	1	180.000	1255.200
5215	5216	5219	1	117.000	711.280
5216	5219	5220	1	124.000	585.760
5219	5220	5221	1	122.000	669.440
5220	5221	5222	1	180.000	1255.200
5219	5220	5223	1	122.000	669.440
5220	5223	5224	1	180.000	1255.200
5216	5219	5225	1	110.000	585.760
5214	5215	5226	1	124.000	585.760
5215	5226	5227	1	109.500	334.720
5226	5227	5228	1	120.000	585.760
5227	5228	5229	1	120.000	527.184
5228	5229	5230	1	120.000	527.184
5229	5230	5231	1	120.000	527.184
5226	5227	5232	1	120.000	585.760
5215	5226	5233	1	111.100	527.184
5226	5233	5234	1	109.500	418.400
5226	5233	5235	1	109.500	418.400
5226	5233	5236	1	109.500	418.400
5210	5211	5237	1	124.000	585.760
5211	5237	5238	1	111.100	527.184
5237	5238	5239	1	112.700	488.273
5237	5238	5240	1	112.700	488.273
5208	5209	5241	1	124.000	585.760
5205	5206	5242	1	120.000	527.184
5186	5203	5243	1	120.000	585.760
5186	5185	5244	1	109.500	292.880
5186	5185	5245	1	109.500	292.880
5186	5185	5246	1	109.500	292.880
5186	5187	5247	1	109.500	292.880
5186	5187	5248	1	109.500	292.880
5187	5188	5249	1	110.700	313.800
5187	5188	5250	1	110.700	313.800
5190	5191	5251	1	120.000	292.880
5191	5192	5252	1	120.000	292.880
5194	5195	5253	1	120.000	292.880
5195	5196	5254	1	120.000	292.880
5197	5198	5255	1	109.5	0.0
5197	5199	5256	1	120.000	292.880
5194	5200	5257	1	120.000	292.880
5193	5201	5258	1	120.000	292.880
5190	5202	5259	1	120.000	292.880
5203	5204	5260	1	120.000	292.880
5204	5205	5261	1	120.000	292.880
5206	5207	5262	1	123.300	292.880
5207	5208	5263	1	120.000	292.880
5209	5210	5264	1	122.260	502.080
5211	5212	5265	1	120.000	292.880
5212	5213	5266	1	120.000	292.880
5213	5214	5267	1	120.000	292.880
5227	5228	5268	1	120.000	292.880
5228	5229	5269	1	120.000	292.880
5229	5230	5270	1	120.000	292.880
5230	5231	5271	1	120.000	292.880
5227	5232	5272	1	120.000	292.880
5211	5237	5273	1	109.500	292.880
5211	5237	5274	1	109.500	292.880
5238	5239	5275	1	110.700	313.800
5238	5239	5276	1	110.700	313.800
5238	5239	5277	1	110.700	313.800
5238	5240	5278	1	110.700	313.800
5238	5240	5279	1	110.700	313.800
5238	5240	5280	1	110.700	313.800
5209	5241	5281	1	109.500	292.880
5209	5241	5282	1	109.500	292.880
5206	5242	5283	1	120.000	292.880
5203	5243	5284	1	120.000	292.880
5202	5201	5258	1	120.000	292.880
5206	5242	5243	1	120.000	527.184
5191	5190	5202	1	120.000	527.184
5238	5237	5274	1	110.700	313.800
5205	5204	5260	1	120.000	292.880
5242	5243	5284	1	120.000	292.880
5203	5243	5242	1	120.000	527.184
5230	5231	5232	1	120.000	527.184
5245	5185	5246	1	107.800	276.144
5198	5197	5199	1	109.5	0.0
5210	5209	5241	1	124.000	585.760
5238	5241	5281	1	110.700	313.800
5196	5195	5253	1	120.000	292.880
5232	5231	5271	1	120.000	292.880
5279	5240	5280	1	107.800	276.144
5221	5220	5223	1	118.760	505.678
5189	5188	5250	1	109.500	292.880
5189	5188	5249	1	109.500	292.880
5240	5238	5241	1	112.700	488.273
5281	5241	5282	1	107.800	276.144
5227	5232	5231	1	120.000	527.184
5217	5216	5219	1	122.000	669.440
5219	5225	5226	1	111.000	627.600
5208	5207	5262	1	120.000	292.880
5201	5202	5259	1	120.000	292.880
5193	5201	5202	1	120.000	527.184
5230	5229	5269	1	120.000	292.880
5194	5193	5201	1	120.000	527.184
5244	5185	5246	1	107.800	276.144
5213	5212	5265	1	120.000	292.880
5194	5200	5199	1	120.000	527.184
5228	5227	5232	1	120.000	527.184
5220	5219	5225	1	120.000	585.760
5200	5199	5256	1	120.000	292.880
5206	5205	5261	1	120.000	292.880
5234	5233	5236	1	109.100	644.336
5225	5226	5233	1	109.500	418.400
5243	5242	5283	1	120.000	292.880
5276	5239	5277	1	107.800	276.144
5190	5202	5201	1	120.000	527.184
5195	5194	5200	1	120.000	527.184
5238	5237	5273	1	110.700	313.800
5227	5226	5233	1	114.000	527.184
5229	5228	5268	1	120.000	292.880
5225	5226	5227	1	109.500	418.400
5231	5232	5272	1	120.000	292.880
5273	5237	5274	1	107.800	276.144
5192	5191	5251	1	120.000	292.880
5275	5239	5277	1	107.800	276.144
5188	5187	5248	1	110.700	313.800
5212	5211	5237	1	124.000	585.760
5234	5233	5235	1	109.100	644.336
5188	5187	5247	1	110.700	313.800
5275	5239	5276	1	107.800	276.144
5207	5206	5242	1	124.000	585.760
5216	5215	5226	1	124.000	585.760
5204	5203	5243	1	120.000	527.184
5239	5238	5240	1	112.700	488.273
5199	5200	5257	1	120.000	292.880
5215	5226	5225	1	109.500	418.400
5237	5238	5241	1	112.700	488.273
5209	5241	5238	1	111.100	527.184
5249	5188	5250	1	107.800	276.144
5235	5233	5236	1	109.100	644.336
5244	5185	5245	1	107.800	276.144
5197	5196	5254	1	120.000	292.880
5214	5213	5266	1	120.000	292.880
5278	5240	5280	1	107.800	276.144
5247	5187	5248	1	107.800	276.144
5187	5186	5203	1	116.000	418.400
5239	5238	5241	1	112.700	488.273
5211	5210	5264	1	122.260	502.080
5193	5192	5252	1	120.000	292.880
5238	5241	5282	1	110.700	313.800
5278	5240	5279	1	107.800	276.144
5209	5208	5263	1	120.000	292.880
5215	5214	5267	1	123.300	292.880
5231	5230	5270	1	120.000	292.880
5197	5199	5200	1	120.000	527.184
5285	5286	5287	1	107.200	433.462
5286	5287	5288	1	109.470	470.282
5287	5288	5289	1	109.500	418.400
5288	5289	5290	1	111.000	627.600
5289	5290	5291	1	120.000	585.760
5290	5291	5292	1	120.000	527.184
5291	5292	5293	1	120.000	527.184
5292	5293	5294	1	120.000	527.184
5293	5294	5295	1	120.000	527.184
5294	5295	5296	1	120.000	527.184
5295	5296	5297	1	120.000	527.184
5296	5297	5298	1	109.5	0.0
5296	5297	5299	1	120.000	527.184
5293	5294	5300	1	120.000	527.184
5292	5293	5301	1	120.000	527.184
5289	5290	5302	1	120.000	585.760
5285	5286	5303	1	116.000	418.400
5286	5303	5304	1	120.000	585.760
5303	5304	5305	1	120.000	527.184
5304	5305	5306	1	120.000	527.184
5305	5306	5307	1	124.000	585.760
5306	5307	5308	1	117.000	711.280
5307	5308	5309	1	124.000	585.760
5308	5309	5310	1	124.000	585.760
5309	5310	5311	1	124.000	585.760
5310	5311	5312	1	124.000	585.760
5311	5312	5313	1	124.000	585.760
5312	5313	5314	1	124.000	585.760
5313	5314	5315	1	117.000	711.280
5314	5315	5316	1	118.760	505.678
5315	5316	5317	1	124.000	585.760
5316	5317	5318	1	180.000	1255.200
5315	5316	5319	1	117.000	711.280
5316	5319	5320	1	124.000	585.760
5319	5320	5321	1	122.000	669.440
5320	5321	5322	1	180.000	1255.200
5319	5320	5323	1	122.000	669.440
5320	5323	5324	1	180.000	1255.200
5316	5319	5325	1	110.000	585.760
5314	5315	5326	1	124.000	585.760
5315	5326	5327	1	109.500	334.720
5326	5327	5328	1	120.000	585.760
5327	5328	5329	1	120.000	527.184
5328	5329	5330	1	120.000	527.184
5329	5330	5331	1	120.000	527.184
5326	5327	5332	1	120.000	585.760
5315	5326	5333	1	111.100	527.184
5326	5333	5334	1	109.500	418.400
5326	5333	5335	1	109.500	418.400
5326	5333	5336	1	109.500	418.400
5310	5311	5337	1	124.000	585.760
5311	5337	5338	1	111.100	527.184
5337	5338	5339	1	112.700	488.273
5337	5338	5340	1	112.700	488.273
5308	5309	5341	1	124.000	585.760
5305	5306	5342	1	120.000	527.184
5286	5303	5343	1	120.000	585.760
5286	5285	5344	1	109.500	292.880
5286	5285	5345	1	109.500	292.880
5286	5285	5346	1	109.500	292.880
5286	5287	5347	1	109.500	292.880
5286	5287	5348	1	109.500	292.880
5287	5288	5349	1	110.700	313.800
5287	5288	5350	1	110.700	313.800
5290	5291	5351	1	120.000	292.880
5291	5292	5352	1	120.000	292.880
5294	5295	5353	1	120.000	292.880
5295	5296	5354	1	120.000	292.880
5297	5298	5355	1	109.5	0.0
5297	5299	5356	1	120.000	292.880
5294	5300	5357	1	120.000	292.880
5293	5301	5358	1	120.000	292.880
5290	5302	5359	1	120.000	292.880
5303	5304	5360	1	120.000	292.880
5304	5305	5361	1	120.000	292.880
5306	5307	5362	1	123.300	292.880
5307	5308	5363	1	120.000	292.880
5309	5310	5364	1	122.260	502.080
5311	5312	5365	1	120.000	292.880
5312	5313	5366	1	120.000	292.880
5313	5314	5367	1	120.000	292.880
5327	5328	5368	1	120.000	292.880
5328	5329	5369	1	120.000	292.880
5329	5330	5370	1	120.000	292.880
5330	5331	5371	1	120.000	292.880
5327	5332	5372	1	120.000	292.880
5311	5337	5373	1	109.500	292.880
5311	5337	5374	1	109.500	292.880
5338	5339	5375	1	110.700	313.800
5338	5339	5376	1	110.700	313.800
5338	5339	5377	1	110.700	313.800
5338	5340	5378	1	110.700	313.800
5338	5340	5379	1	110.700	313.800
5338	5340	5380	1	110.700	313.800
5309	5341	5381	1	109.500	292.880
5309	5341	5382	1	109.500	292.880
5306	5342	5383	1	120.000	292.880
5303	5343	5384	1	120.000	292.880
5302	5301	5358	1	120.000	292.880
5306	5342	5343	1	120.000	527.184
5291	5290	5302	1	120.000	527.184
5338	5337	5374	1	110.700	313.800
5305	5304	5360	1	120.000	292.880
5342	5343	5384	1	120.000	292.880
5303	5343	5342	1	120.000	527.184
5330	5331	5332	1	120.000	527.184
5345	5285	5346	1	107.800	276.144
5298	5297	5299	1	109.5	0.0
5310	5309	5341	1	124.000	585.760
5338	5341	5381	1	110.700	313.800
5296	5295	5353	1	120.000	292.880
5332	5331	5371	1	120.000	292.880
5379	5340	5380	1	107.800	276.144
5321	5320	5323	1	118.760	505.678
5289	5288	5350	1	109.500	292.880
5289	5288	5349	1	109.500	292.880
5340	5338	5341	1	112.700	488.273
5381	5341	5382	1	107.800	276.144
5327	5332	5331	1	120.000	527.184
5317	5316	5319	1	122.000	669.440
5319	5325	5326	1	111.000	627.600
5308	5307	5362	1	120.000	292.880
5301	5302	5359	1	120.000	292.880
5293	5301	5302	1	120.000	527.184
5330	5329	5369	1	120.000	292.880
5294	5293	5301	1	120.000	527.184
5344	5285	5346	1	107.800	276.144
5313	5312	5365	1	120.000	292.880
5294	5300	5299	1	120.000	527.184
5328	5327	5332	1	120.000	527.184
5320	5319	5325	1	120.000	585.760
5300	5299	5356	1	120.000	292.880
5306	5305	5361	1	120.000	292.880
5334	5333	5336	1	109.100	644.336
5325	5326	5333	1	109.500	418.400
5343	5342	5383	1	120.000	292.880
5376	5339	5377	1	107.800	276.144
5290	5302	5301	1	120.000	527.184
5295	5294	5300	1	120.000	527.184
5338	5337	5373	1	110.700	313.800
5327	5326	5333	1	114.000	527.184
5329	5328	5368	1	120.000	292.880
5325	5326	5327	1	109.500	418.400
5331	5332	5372	1	120.000	292.880
5373	5337	5374	1	107.800	276.144
5292	5291	5351	1	120.000	292.880
5375	5339	5377	1	107.800	276.144
5288	5287	5348	1	110.700	313.800
5312	5311	5337	1	124.000	585.760
5334	5333	5335	1	109.100	644.336
5288	5287	5347	1	110.700	313.800
5375	5339	5376	1	107.800	276.144
5307	5306	5342	1	124.000	585.760
5316	5315	5326	1	124.000	585.760
5304	5303	5343	1	120.000	527.184
5339	5338	5340	1	112.700	488.273
5299	5300	5357	1	120.000	292.880
5315	5326	5325	1	109.500	418.400
5337	5338	5341	1	112.700	488.273
5309	5341	5338	1	111.100	527.184
5349	5288	5350	1	107.800	276.144
5335	5333	5336	1	109.100	644.336
5344	5285	5345	1	107.800	276.144
5297	5296	5354	1	120.000	292.880
5314	5313	5366	1	120.000	292.880
5378	5340	5380	1	107.800	276.144
5347	5287	5348	1	107.800	276.144
5287	5286	5303	1	116.000	418.400
5339	5338	5341	1	112.700	488.273
5311	5310	5364	1	122.260	502.080
5293	5292	5352	1	120.000	292.880
5338	5341	5382	1	110.700	313.800
5378	5340	5379	1	107.800	276.144
5309	5308	5363	1	120.000	292.880
5315	5314	5367	1	123.300	292.880
5331	5330	5370	1	120.000	292.880
5297	5299	5300	1	120.000	527.184
5385	5386	5387	1	107.200	433.462
5386	5387	5388	1	109.470	470.282
5387	5388	5389	1	109.500	418.400
5388	5389	5390	1	111.000	627.600
5389	5390	5391	1	120.000	585.760
5390	5391	5392	1	120.000	527.184
5391	5392	5393	1	120.000	527.184
5392	5393	5394	1	120.000	527.184
5393	5394	5395	1	120.000	527.184
5394	5395	5396	1	120.000	527.184
5395	5396	5397	1	120.000	527.184
5396	5397	5398	1	109.5	0.0
5396	5397	5399	1	120.000	527.184
5393	5394	5400	1	120.000	527.184
5392	5393	5401	1	120.000	527.184
5389	5390	5402	1	120.000	585.760
5385	5386	5403	1	116.000	418.400
5386	5403	5404	1	120.000	585.760
5403	5404	5405	1	120.000	527.184
5404	5405	5406	1	120.000	527.184
5405	5406	5407	1	124.000	585.760
5406	5407	5408	1	117.000	711.280
5407	5408	5409	1	124.000	585.760
5408	5409	5410	1	124.000	585.760
5409	5410	5411	1	124.000	585.760
5410	5411	5412	1	124.000	585.760
5411	5412	5413	1	124.000	585.760
5412	5413	5414	1	124.000	585.760
5413	5414	5415	1	117.000	711.280
5414	5415	5416	1	118.760	505.678
5415	5416	5417	1	124.000	585.760
5416	5417	5418	1	180.000	1255.200
5415	5416	5419	1	117.000	711.280
5416	5419	5420	1	124.000	585.760
5419	5420	5421	1	122.000	669.440
5420	5421	5422	1	180.000	1255.200
5419	5420	5423	1	122.000	669.440
5420	5423	5424	1	180.000	1255.200
5416	5419	5425	1	110.000	585.760
5414	5415	5426	1	124.000	585.760
5415	5426	5427	1	109.500	334.720
5426	5427	5428	1	120.000	585.760
5427	5428	5429	1	120.000	527.184
5428	5429	5430	1	120.000	527.184
5429	5430	5431	1	120.000	527.184
5426	5427	5432	1	120.000	585.760
5415	5426	5433	1	111.100	527.184
5426	5433	5434	1	109.500	418.400
5426	5433	5435	1	109.500	418.400
5426	5433	5436	1	109.500	418.400
5410	5411	5437	1	124.000	585.760
5411	5437	5438	1	111.100	527.184
5437	5438	5439	1	112.700	488.273
5437	5438	5440	1	112.700	488.273
5408	5409	5441	1	124.000	585.760
5405	5406	5442	1	120.000	527.184
5386	5403	5443	1	120.000	585.760
5386	5385	5444	1	109.500	292.880
5386	5385	5445	1	109.500	292.880
5386	5385	5446	1	109.500	292.880
5386	5387	5447	1	109.500	292.880
5386	5387	5448	1	109.500	292.880
5387	5388	5449	1	110.700	313.800
5387	5388	5450	1	110.700	313.800
5390	5391	5451	1	120.000	292.880
5391	5392	5452	1	120.000	292.880
5394	5395	5453	1	120.000	292.880
5395	5396	5454	1	120.000	292.880
5397	5398	5455	1	109.5	0.0
5397	5399	5456	1	120.000	292.880
5394	5400	5457	1	120.000	292.880
5393	5401	5458	1	120.000	292.880
5390	5402	5459	1	120.000	292.880
5403	5404	5460	1	120.000	292.880
5404	5405	5461	1	120.000	292.880
5406	5407	5462	1	123.300	292.880
5407	5408	5463	1	120.000	292.880
5409	5410	5464	1	122.260	502.080
5411	5412	5465	1	120.000	292.880
5412	5413	5466	1	120.000	292.880
5413	5414	5467	1	120.000	292.880
5427	5428	5468	1	120.000	292.880
5428	5429	5469	1	120.000	292.880
5429	5430	5470	1	120.000	292.880
5430	5431	5471	1	120.000	292.880
5427	5432	5472	1	120.000	292.880
5411	5437	5473	1	109.500	292.880
5411	5437	5474	1	109.500	292.880
5438	5439	5475	1	110.700	313.800
5438	5439	5476	1	110.700	313.800
5438	5439	5477	1	110.700	313.800
5438	5440	5478	1	110.700	313.800
5438	5440	5479	1	110.700	313.800
5438	5440	5480	1	110.700	313.800
5409	5441	5481	1	109.500	292.880
5409	5441	5482	1	109.500	292.880
5406	5442	5483	1	120.000	292.880
5403	5443	5484	1	120.000	292.880
5402	5401	5458	1	120.000	292.880
5406	5442	5443	1	120.000	527.184
5391	5390	5402	1	120.000	527.184
5438	5437	5474	1	110.700	313.800
5405	5404	5460	1	120.000	292.880
5442	5443	5484	1	120.000	292.880
5403	5443	5442	1	120.000	527.184
5430	5431	5432	1	120.000	527.184
5445	5385	5446	1	107.800	276.144
5398	5397	5399	1	109.5	0.0
5410	5409	5441	1	124.000	585.760
5438	5441	5481	1	110.700	313.800
5396	5395	5453	1	120.000	292.880
5432	5431	5471	1	120.000	292.880
5479	5440	5480	1	107.800	276.144
5421	5420	5423	1	118.760	505.678
5389	5388	5450	1	109.500	292.880
5389	5388	5449	1	109.500	292.880
5440	5438	5441	1	112.700	488.273
5481	5441	5482	1	107.800	276.144
5427	5432	5431	1	120.000	527.184
5417	5416	5419	1	122.000	669.440
5419	5425	5426	1	111.000	627.600
5408	5407	5462	1	120.000	292.880
5401	5402	5459	1	120.000	292.880
5393	5401	5402	1	120.000	527.184
5430	5429	5469	1	120.000	292.880
5394	5393	5401	1	120.000	527.184
5444	5385	5446	1	107.800	276.144
5413	5412	5465	1	120.000	292.880
5394	5400	5399	1	120.000	527.184
5428	5427	5432	1	120.000	527.184
5420	5419	5425	1	120.000	585.760
5400	5399	5456	1	120.000	292.880
5406	5405	5461	1	120.000	292.880
5434	5433	5436	1	109.100	644.336
5425	5426	5433	1	109.500	418.400
5443	5442	5483	1	120.000	292.880
5476	5439	5477	1	107.800	276.144
5390	5402	5401	1	120.000	527.184
5395	5394	5400	1	120.000	527.184
5438	5437	5473	1	110.700	313.800
5427	5426	5433	1	114.000	527.184
5429	5428	5468	1	120.000	292.880
5425	5426	5427	1	109.500	418.400
5431	5432	5472	1	120.000	292.880
5473	5437	5474	1	107.800	276.144
5392	5391	5451	1	120.000	292.880
5475	5439	5477	1	107.800	276.144
5388	5387	5448	1	110.700	313.800
5412	5411	5437	1	124.000	585.760
5434	5433	5435	1	109.100	644.336
5388	5387	5447	1	110.700	313.800
5475	5439	5476	1	107.800	276.144
5407	5406	5442	1	124.000	585.760
5416	5415	5426	1	124.000	585.760
5404	5403	5443	1	120.000	527.184
5439	5438	5440	1	112.700	488.273
5399	5400	5457	1	120.000	292.880
5415	5426	5425	1	109.500	418.400
5437	5438	5441	1	112.700	488.273
5409	5441	5438	1	111.100	527.184
5449	5388	5450	1	107.800	276.144
5435	5433	5436	1	109.100	644.336
5444	5385	5445	1	107.800	276.144
5397	5396	5454	1	120.000	292.880
5414	5413	5466	1	120.000	292.880
5478	5440	5480	1	107.800	276.144
5447	5387	5448	1	107.800	276.144
5387	5386	5403	1	116.000	418.400
5439	5438	5441	1	112.700	488.273
5411	5410	5464	1	122.260	502.080
5393	5392	5452	1	120.000	292.880
5438	5441	5482	1	110.700	313.800
5478	5440	5479	1	107.800	276.144
5409	5408	5463	1	120.000	292.880
5415	5414	5467	1	123.300	292.880
5431	5430	5470	1	120.000	292.880
5397	5399	5400	1	120.000	527.184
5485	5486	5487	1	107.200	433.462
5486	5487	5488	1	109.470	470.282
5487	5488	5489	1	109.500	418.400
5488	5489	5490	1	111.000	627.600
5489	5490	5491	1	120.000	585.760
5490	5491	5492	1	120.000	527.184
5491	5492	5493	1	120.000	527.184
5492	5493	5494	1	120.000	527.184
5493	5494	5495	1	120.000	527.184
5494	5495	5496	1	120.000	527.184
5495	5496	5497	1	120.000	527.184
5496	5497	5498	1	109.5	0.0
5496	5497	5499	1	120.000	527.184
5493	5494	5500	1	120.000	527.184
5492	5493	5501	1	120.000	527.184
5489	5490	5502	1	120.000	585.760
5485	5486	5503	1	116.000	418.400
5486	5503	5504	1	120.000	585.760
5503	5504	5505	1	120.000	527.184
5504	5505	5506	1	120.000	527.184
5505	5506	5507	1	124.000	585.760
5506	5507	5508	1	117.000	711.280
5507	5508	5509	1	124.000	585.760
5508	5509	5510	1	124.000	585.760
5509	5510	5511	1	124.000	585.760
5510	5511	5512	1	124.000	585.760
5511	5512	5513	1	124.000	585.760
5512	5513	5514	1	124.000	585.760
5513	5514	5515	1	117.000	711.280
5514	5515	5516	1	118.760	505.678
5515	5516	5517	1	124.000	585.760
5516	5517	5518	1	180.000	1255.200
5515	5516	5519	1	117.000	711.280
5516	5519	5520	1	124.000	585.760
5519	5520	5521	1	122.000	669.440
5520	5521	5522	1	180.000	1255.200
5519	5520	5523	1	122.000	669.440
5520	5523	5524	1	180.000	1255.200
5516	5519	5525	1	110.000	585.760
5514	5515	5526	1	124.000	585.760
5515	5526	5527	1	109.500	334.720
5526	5527	5528	1	120.000	585.760
5527	5528	5529	1	120.000	527.184
5528	5529	5530	1	120.000	527.184
5529	5530	5531	1	120.000	527.184
5526	5527	5532	1	120.000	585.760
5515	5526	5533	1	111.100	527.184
5526	5533	5534	1	109.500	418.400
5526	5533	5535	1	109.500	418.400
5526	5533	5536	1	109.500	418.400
5510	5511	5537	1	124.000	585.760
5511	5537	5538	1	111.100	527.184
5537	5538	5539	1	112.700	488.273
5537	5538	5540	1	112.700	488.273
5508	5509	5541	1	124.000	585.760
5505	5506	5542	1	120.000	527.184
5486	5503	5543	1	120.000	585.760
5486	5485	5544	1	109.500	292.880
5486	5485	5545	1	109.500	292.880
5486	5485	5546	1	109.500	292.880
5486	5487	5547	1	109.500	292.880
5486	5487	5548	1	109.500	292.880
5487	5488	5549	1	110.700	313.800
5487	5488	5550	1	110.700	313.800
5490	5491	5551	1	120.000	292.880
5491	5492	5552	1	120.000	292.880
5494	5495	5553	1	120.000	292.880
5495	5496	5554	1	120.000	292.880
5497	5498	5555	1	109.5	0.0
5497	5499	5556	1	120.000	292.880
5494	5500	5557	1	120.000	292.880
5493	5501	5558	1	120.000	292.880
5490	5502	5559	1	120.000	292.880
5503	5504	5560	1	120.000	292.880
5504	5505	5561	1	120.000	292.880
5506	5507	5562	1	123.300	292.880
5507	5508	5563	1	120.000	292.880
5509	5510	5564	1	122.260	502.080
5511	5512	5565	1	120.000	292.880
5512	5513	5566	1	120.000	292.880
5513	5514	5567	1	120.000	292.880
5527	5528	5568	1	120.000	292.880
5528	5529	5569	1	120.000	292.880
5529	5530	5570	1	120.000	292.880
5530	5531	5571	1	120.000	292.880
5527	5532	5572	1	120.000	292.880
5511	5537	5573	1	109.500	292.880
5511	5537	5574	1	109.500	292.880
5538	5539	5575	1	110.700	313.800
5538	5539	5576	1	110.700	313.800
5538	5539	5577	1	110.700	313.800
5538	5540	5578	1	110.700	313.800
5538	5540	5579	1	110.700	313.800
5538	5540	5580	1	110.700	313.800
5509	5541	5581	1	109.500	292.880
5509	5541	5582	1	109.500	292.880
5506	5542	5583	1	120.000	292.880
5503	5543	5584	1	120.000	292.880
5502	5501	5558	1	120.000	292.880
5506	5542	5543	1	120.000	527.184
5491	5490	5502	1	120.000	527.184
5538	5537	5574	1	110.700	313.800
5505	5504	5560	1	120.000	292.880
5542	5543	5584	1	120.000	292.880
5503	5543	5542	1	120.000	527.184
5530	5531	5532	1	120.000	527.184
5545	5485	5546	1	107.800	276.144
5498	5497	5499	1	109.5	0.0
5510	5509	5541	1	124.000	585.760
5538	5541	5581	1	110.700	313.800
5496	5495	5553	1	120.000	292.880
5532	5531	5571	1	120.000	292.880
5579	5540	5580	1	107.800	276.144
5521	5520	5523	1	118.760	505.678
5489	5488	5550	1	109.500	292.880
5489	5488	5549	1	109.500	292.880
5540	5538	5541	1	112.700	488.273
5581	5541	5582	1	107.800	276.144
5527	5532	5531	1	120.000	527.184
5517	5516	5519	1	122.000	669.440
5519	5525	5526	1	111.000	627.600
5508	5507	5562	1	120.000	292.880
5501	5502	5559	1	120.000	292.880
5493	5501	5502	1	120.000	527.184
5530	5529	5569	1	120.000	292.880
5494	5493	5501	1	120.000	527.184
5544	5485	5546	1	107.800	276.144
5513	5512	5565	1	120.000	292.880
5494	5500	5499	1	120.000	527.184
5528	5527	5532	1	120.000	527.184
5520	5519	5525	1	120.000	585.760
5500	5499	5556	1	120.000	292.880
5506	5505	5561	1	120.000	292.880
5534	5533	5536	1	109.100	644.336
5525	5526	5533	1	109.500	418.400
5543	5542	5583	1	120.000	292.880
5576	5539	5577	1	107.800	276.144
5490	5502	5501	1	120.000	527.184
5495	5494	5500	1	120.000	527.184
5538	5537	5573	1	110.700	313.800
5527	5526	5533	1	114.000	527.184
5529	5528	5568	1	120.000	292.880
5525	5526	5527	1	109.500	418.400
5531	5532	5572	1	120.000	292.880
5573	5537	5574	1	107.800	276.144
5492	5491	5551	1	120.000	292.880
5575	5539	5577	1	107.800	276.144
5488	5487	5548	1	110.700	313.800
5512	5511	5537	1	124.000	585.760
5534	5533	5535	1	109.100	644.336
5488	5487	5547	1	110.700	313.800
5575	5539	5576	1	107.800	276.144
5507	5506	5542	1	124.000	585.760
5516	5515	5526	1	124.000	585.760
5504	5503	5543	1	120.000	527.184
5539	5538	5540	1	112.700	488.273
5499	5500	5557	1	120.000	292.880
5515	5526	5525	1	109.500	418.400
5537	5538	5541	1	112.700	488.273
5509	5541	5538	1	111.100	527.184
5549	5488	5550	1	107.800	276.144
5535	5533	5536	1	109.100	644.336
5544	5485	5545	1	107.800	276.144
5497	5496	5554	1	120.000	292.880
5514	5513	5566	1	120.000	292.880
5578	5540	5580	1	107.800	276.144
5547	5487	5548	1	107.800	276.144
5487	5486	5503	1	116.000	418.400
5539	5538	5541	1	112.700	488.273
5511	5510	5564	1	122.260	502.080
5493	5492	5552	1	120.000	292.880
5538	5541	5582	1	110.700	313.800
5578	5540	5579	1	107.800	276.144
5509	5508	5563	1	120.000	292.880
5515	5514	5567	1	123.300	292.880
5531	5530	5570	1	120.000	292.880
5497	5499	5500	1	120.000	527.184
5585	5586	5587	1	107.200	433.462
5586	5587	5588	1	109.470	470.282
5587	5588	5589	1	109.500	418.400
5588	5589	5590	1	111.000	627.600
5589	5590	5591	1	120.000	585.760
5590	5591	5592	1	120.000	527.184
5591	5592	5593	1	120.000	527.184
5592	5593	5594	1	120.000	527.184
5593	5594	5595	1	120.000	527.184
5594	5595	5596	1	120.000	527.184
5595	5596	5597	1	120.000	527.184
5596	5597	5598	1	109.5	0.0
5596	5597	5599	1	120.000	527.184
5593	5594	5600	1	120.000	527.184
5592	5593	5601	1	120.000	527.184
5589	5590	5602	1	120.000	585.760
5585	5586	5603	1	116.000	418.400
5586	5603	5604	1	120.000	585.760
5603	5604	5605	1	120.000	527.184
5604	5605	5606	1	120.000	527.184
5605	5606	5607	1	124.000	585.760
5606	5607	5608	1	117.000	711.280
5607	5608	5609	1	124.000	585.760
5608	5609	5610	1	124.000	585.760
5609	5610	5611	1	124.000	585.760
5610	5611	5612	1	124.000	585.760
5611	5612	5613	1	124.000	585.760
5612	5613	5614	1	124.000	585.760
5613	5614	5615	1	117.000	711.280
5614	5615	5616	1	118.760	505.678
5615	5616	5617	1	124.000	585.760
5616	5617	5618	1	180.000	1255.200
5615	5616	5619	1	117.000	711.280
5616	5619	5620	1	124.000	585.760
5619	5620	5621	1	122.000	669.440
5620	5621	5622	1	180.000	1255.200
5619	5620	5623	1	122.000	669.440
5620	5623	5624	1	180.000	1255.200
5616	5619	5625	1	110.000	585.760
5614	5615	5626	1	124.000	585.760
5615	5626	5627	1	109.500	334.720
5626	5627	5628	1	120.000	585.760
5627	5628	5629	1	120.000	527.184
5628	5629	5630	1	120.000	527.184
5629	5630	5631	1	120.000	527.184
5626	5627	5632	1	120.000	585.760
5615	5626	5633	1	111.100	527.184
5626	5633	5634	1	109.500	418.400
5626	5633	5635	1	109.500	418.400
5626	5633	5636	1	109.500	418.400
5610	5611	5637	1	124.000	585.760
5611	5637	5638	1	111.100	527.184
5637	5638	5639	1	112.700	488.273
5637	5638	5640	1	112.700	488.273
5608	5609	5641	1	124.000	585.760
5605	5606	5642	1	120.000	527.184
5586	5603	5643	1	120.000	585.760
5586	5585	5644	1	109.500	292.880
5586	5585	5645	1	109.500	292.880
5586	5585	5646	1	109.500	292.880
5586	5587	5647	1	109.500	292.880
5586	5587	5648	1	109.500	292.880
5587	5588	5649	1	110.700	313.800
5587	5588	5650	1	110.700	313.800
5590	5591	5651	1	120.000	292.880
5591	5592	5652	1	120.000	292.880
5594	5595	5653	1	120.000	292.880
5595	5596	5654	1	120.000	292.880
5597	5598	5655	1	109.5	0.0
5597	5599	5656	1	120.000	292.880
5594	5600	5657	1	120.000	292.880
5593	5601	5658	1	120.000	292.880
5590	5602	5659	1	120.000	292.880
5603	5604	5660	1	120.000	292.880
5604	5605	5661	1	120.000	292.880
5606	5607	5662	1	123.300	292.880
5607	5608	5663	1	120.000	292.880
5609	5610	5664	1	122.260	502.080
5611	5612	5665	1	120.000	292.880
5612	5613	5666	1	120.000	292.880
5613	5614	5667	1	120.000	292.880
5627	5628	5668	1	120.000	292.880
5628	5629	5669	1	120.000	292.880
5629	5630	5670	1	120.000	292.880
5630	5631	5671	1	120.000	292.880
5627	5632	5672	1	120.000	292.880
5611	5637	5673	1	109.500	292.880
5611	5637	5674	1	109.500	292.880
5638	5639	5675	1	110.700	313.800
5638	5639	5676	1	110.700	313.800
5638	5639	5677	1	110.700	313.800
5638	5640	5678	1	110.700	313.800
5638	5640	5679	1	110.700	313.800
5638	5640	5680	1	110.700	313.800
5609	5641	5681	1	109.500	292.880
5609	5641	5682	1	109.500	292.880
5606	5642	5683	1	120.000	292.880
5603	5643	5684	1	120.000	292.880
5602	5601	5658	1	120.000	292.880
5606	5642	5643	1	120.000	527.184
5591	5590	5602	1	120.000	527.184
5638	5637	5674	1	110.700	313.800
5605	5604	5660	1	120.000	292.880
5642	5643	5684	1	120.000	292.880
5603	5643	5642	1	120.000	527.184
5630	5631	5632	1	120.000	527.184
5645	5585	5646	1	107.800	276.144
5598	5597	5599	1	109.5	0.0
5610	5609	5641	1	124.000	585.760
5638	5641	5681	1	110.700	313.800
5596	5595	5653	1	120.000	292.880
5632	5631	5671	1	120.000	292.880
5679	5640	5680	1	107.800	276.144
5621	5620	5623	1	118.760	505.678
5589	5588	5650	1	109.500	292.880
5589	5588	5649	1	109.500	292.880
5640	5638	5641	1	112.700	488.273
5681	5641	5682	1	107.800	276.144
5627	5632	5631	1	120.000	527.184
5617	5616	5619	1	122.000	669.440
5619	5625	5626	1	111.000	627.600
5608	5607	5662	1	120.000	292.880
5601	5602	5659	1	120.000	292.880
5593	5601	5602	1	120.000	527.184
5630	5629	5669	1	120.000	292.880
5594	5593	5601	1	120.000	527.184
5644	5585	5646	1	107.800	276.144
5613	5612	5665	1	120.000	292.880
5594	5600	5599	1	120.000	527.184
5628	5627	5632	1	120.000	527.184
5620	5619	5625	1	120.000	585.760
5600	5599	5656	1	120.000	292.880
5606	5605	5661	1	120.000	292.880
5634	5633	5636	1	109.100	644.336
5625	5626	5633	1	109.500	418.400
5643	5642	5683	1	120.000	292.880
5676	5639	5677	1	107.800	276.144
5590	5602	5601	1	120.000	527.184
5595	5594	5600	1	120.000	527.184
5638	5637	5673	1	110.700	313.800
5627	5626	5633	1	114.000	527.184
5629	5628	5668	1	120.000	292.880
5625	5626	5627	1	109.500	418.400
5631	5632	5672	1	120.000	292.880
5673	5637	5674	1	107.800	276.144
5592	5591	5651	1	120.000	292.880
5675	5639	5677	1	107.800	276.144
5588	5587	5648	1	110.700	313.800
5612	5611	5637	1	124.000	585.760
5634	5633	5635	1	109.100	644.336
5588	5587	5647	1	110.700	313.800
5675	5639	5676	1	107.800	276.144
5607	5606	5642	1	124.000	585.760
5616	5615	5626	1	124.000	585.760
5604	5603	5643	1	120.000	527.184
5639	5638	5640	1	112.700	488.273
5599	5600	5657	1	120.000	292.880
5615	5626	5625	1	109.500	418.400
5637	5638	5641	1	112.700	488.273
5609	5641	5638	1	111.100	527.184
5649	5588	5650	1	107.800	276.144
5635	5633	5636	1	109.100	644.336
5644	5585	5645	1	107.800	276.144
5597	5596	5654	1	120.000	292.880
5614	5613	5666	1	120.000	292.880
5678	5640	5680	1	107.800	276.144
5647	5587	5648	1	107.800	276.144
5587	5586	5603	1	116.000	418.400
5639	5638	5641	1	112.700	488.273
5611	5610	5664	1	122.260	502.080
5593	5592	5652	1	120.000	292.880
5638	5641	5682	1	110.700	313.800
5678	5640	5679	1	107.800	276.144
5609	5608	5663	1	120.000	292.880
5615	5614	5667	1	123.300	292.880
5631	5630	5670	1	120.000	292.880
5597	5599	5600	1	120.000	527.184
5685	5686	5687	1	107.200	433.462
5686	5687	5688	1	109.470	470.282
5687	5688	5689	1	109.500	418.400
5688	5689	5690	1	111.000	627.600
5689	5690	5691	1	120.000	585.760
5690	5691	5692	1	120.000	527.184
5691	5692	5693	1	120.000	527.184
5692	5693	5694	1	120.000	527.184
5693	5694	5695	1	120.000	527.184
5694	5695	5696	1	120.000	527.184
5695	5696	5697	1	120.000	527.184
5696	5697	5698	1	109.5	0.0
5696	5697	5699	1	120.000	527.184
5693	5694	5700	1	120.000	527.184
5692	5693	5701	1	120.000	527.184
5689	5690	5702	1	120.000	585.760
5685	5686	5703	1	116.000	418.400
5686	5703	5704	1	120.000	585.760
5703	5704	5705	1	120.000	527.184
5704	5705	5706	1	120.000	527.184
5705	5706	5707	1	124.000	585.760
5706	5707	5708	1	117.000	711.280
5707	5708	5709	1	124.000	585.760
5708	5709	5710	1	124.000	585.760
5709	5710	5711	1	124.000	585.760
5710	5711	5712	1	124.000	585.760
5711	5712	5713	1	124.000	585.760
5712	5713	5714	1	124.000	585.760
5713	5714	5715	1	117.000	711.280
5714	5715	5716	1	118.760	505.678
5715	5716	5717	1	124.000	585.760
5716	5717	5718	1	180.000	1255.200
5715	5716	5719	1	117.000	711.280
5716	5719	5720	1	124.000	585.760
5719	5720	5721	1	122.000	669.440
5720	5721	5722	1	180.000	1255.200
5719	5720	5723	1	122.000	669.440
5720	5723	5724	1	180.000	1255.200
5716	5719	5725	1	110.000	585.760
5714	5715	5726	1	124.000	585.760
5715	5726	5727	1	109.500	334.720
5726	5727	5728	1	120.000	585.760
5727	5728	5729	1	120.000	527.184
5728	5729	5730	1	120.000	527.184
5729	5730	5731	1	120.000	527.184
5726	5727	5732	1	120.000	585.760
5715	5726	5733	1	111.100	527.184
5726	5733	5734	1	109.500	418.400
5726	5733	5735	1	109.500	418.400
5726	5733	5736	1	109.500	418.400
5710	5711	5737	1	124.000	585.760
5711	5737	5738	1	111.100	527.184
5737	5738	5739	1	112.700	488.273
5737	5738	5740	1	112.700	488.273
5708	5709	5741	1	124.000	585.760
5705	5706	5742	1	120.000	527.184
5686	5703	5743	1	120.000	585.760
5686	5685	5744	1	109.500	292.880
5686	5685	5745	1	109.500	292.880
5686	5685	5746	1	109.500	292.880
5686	5687	5747	1	109.500	292.880
5686	5687	5748	1	109.500	292.880
5687	5688	5749	1	110.700	313.800
5687	5688	5750	1	110.700	313.800
5690	5691	5751	1	120.000	292.880
5691	5692	5752	1	120.000	292.880
5694	5695	5753	1	120.000	292.880
5695	5696	5754	1	120.000	292.880
5697	5698	5755	1	109.5	0.0
5697	5699	5756	1	120.000	292.880
5694	5700	5757	1	120.000	292.880
5693	5701	5758	1	120.000	292.880
5690	5702	5759	1	120.000	292.880
5703	5704	5760	1	120.000	292.880
5704	5705	5761	1	120.000	292.880
5706	5707	5762	1	123.300	292.880
5707	5708	5763	1	120.000	292.880
5709	5710	5764	1	122.260	502.080
5711	5712	5765	1	120.000	292.880
5712	5713	5766	1	120.000	292.880
5713	5714	5767	1	120.000	292.880
5727	5728	5768	1	120.000	292.880
5728	5729	5769	1	120.000	292.880
5729	5730	5770	1	120.000	292.880
5730	5731	5771	1	120.000	292.880
5727	5732	5772	1	120.000	292.880
5711	5737	5773	1	109.500	292.880
5711	5737	5774	1	109.500	292.880
5738	5739	5775	1	110.700	313.800
5738	5739	5776	1	110.700	313.800
5738	5739	5777	1	110.700	313.800
5738	5740	5778	1	110.700	313.800
5738	5740	5779	1	110.700	313.800
5738	5740	5780	1	110.700	313.800
5709	5741	5781	1	109.500	292.880
5709	5741	5782	1	109.500	292.880
5706	5742	5783	1	120.000	292.880
5703	5743	5784	1	120.000	292.880
5702	5701	5758	1	120.000	292.880
5706	5742	5743	1	120.000	527.184
5691	5690	5702	1	120.000	527.184
5738	5737	5774	1	110.700	313.800
5705	5704	5760	1	120.000	292.880
5742	5743	5784	1	120.000	292.880
5703	5743	5742	1	120.000	527.184
5730	5731	5732	1	120.000	527.184
5745	5685	5746	1	107.800	276.144
5698	5697	5699	1	109.5	0.0
5710	5709	5741	1	124.000	585.760
5738	5741	5781	1	110.700	313.800
5696	5695	5753	1	120.000	292.880
5732	5731	5771	1	120.000	292.880
5779	5740	5780	1	107.800	276.144
5721	5720	5723	1	118.760	505.678
5689	5688	5750	1	109.500	292.880
5689	5688	5749	1	109.500	292.880
5740	5738	5741	1	112.700	488.273
5781	5741	5782	1	107.800	276.144
5727	5732	5731	1	120.000	527.184
5717	5716	5719	1	122.000	669.440
5719	5725	5726	1	111.000	627.600
5708	5707	5762	1	120.000	292.880
5701	5702	5759	1	120.000	292.880
5693	5701	5702	1	120.000	527.184
5730	5729	5769	1	120.000	292.880
5694	5693	5701	1	120.000	527.184
5744	5685	5746	1	107.800	276.144
5713	5712	5765	1	120.000	292.880
5694	5700	5699	1	120.000	527.184
5728	5727	5732	1	120.000	527.184
5720	5719	5725	1	120.000	585.760
5700	5699	5756	1	120.000	292.880
5706	5705	5761	1	120.000	292.880
5734	5733	5736	1	109.100	644.336
5725	5726	5733	1	109.500	418.400
5743	5742	5783	1	120.000	292.880
5776	5739	5777	1	107.800	276.144
5690	5702	5701	1	120.000	527.184
5695	5694	5700	1	120.000	527.184
5738	5737	5773	1	110.700	313.800
5727	5726	5733	1	114.000	527.184
5729	5728	5768	1	120.000	292.880
5725	5726	5727	1	109.500	418.400
5731	5732	5772	1	120.000	292.880
5773	5737	5774	1	107.800	276.144
5692	5691	5751	1	120.000	292.880
5775	5739	5777	1	107.800	276.144
5688	5687	5748	1	110.700	313.800
5712	5711	5737	1	124.000	585.760
5734	5733	5735	1	109.100	644.336
5688	5687	5747	1	110.700	313.800
5775	5739	5776	1	107.800	276.144
5707	5706	5742	1	124.000	585.760
5716	5715	5726	1	124.000	585.760
5704	5703	5743	1	120.000	527.184
5739	5738	5740	1	112.700	488.273
5699	5700	5757	1	120.000	292.880
5715	5726	5725	1	109.500	418.400
5737	5738	5741	1	112.700	488.273
5709	5741	5738	1	111.100	527.184
5749	5688	5750	1	107.800	276.144
5735	5733	5736	1	109.100	644.336
5744	5685	5745	1	107.800	276.144
5697	5696	5754	1	120.000	292.880
5714	5713	5766	1	120.000	292.880
5778	5740	5780	1	107.800	276.144
5747	5687	5748	1	107.800	276.144
5687	5686	5703	1	116.000	418.400
5739	5738	5741	1	112.700	488.273
5711	5710	5764	1	122.260	502.080
5693	5692	5752	1	120.000	292.880
5738	5741	5782	1	110.700	313.800
5778	5740	5779	1	107.800	276.144
5709	5708	5763	1	120.000	292.880
5715	5714	5767	1	123.300	292.880
5731	5730	5770	1	120.000	292.880
5697	5699	5700	1	120.000	527.184
5785	5786	5787	1	107.200	433.462
5786	5787	5788	1	109.470	470.282
5787	5788	5789	1	109.500	418.400
5788	5789	5790	1	111.000	627.600
5789	5790	5791	1	120.000	585.760
5790	5791	5792	1	120.000	527.184
5791	5792	5793	1	120.000	527.184
5792	5793	5794	1	120.000	527.184
5793	5794	5795	1	120.000	527.184
5794	5795	5796	1	120.000	527.184
5795	5796	5797	1	120.000	527.184
5796	5797	5798	1	109.5	0.0
5796	5797	5799	1	120.000	527.184
5793	5794	5800	1	120.000	527.184
5792	5793	5801	1	120.000	527.184
5789	5790	5802	1	120.000	585.760
5785	5786	5803	1	116.000	418.400
5786	5803	5804	1	120.000	585.760
5803	5804	5805	1	120.000	527.184
5804	5805	5806	1	120.000	527.184
5805	5806	5807	1	124.000	585.760
5806	5807	5808	1	117.000	711.280
5807	5808	5809	1	124.000	585.760
5808	5809	5810	1	124.000	585.760
5809	5810	5811	1	124.000	585.760
5810	5811	5812	1	124.000	585.760
5811	5812	5813	1	124.000	585.760
5812	5813	5814	1	124.000	585.760
5813	5814	5815	1	117.000	711.280
5814	5815	5816	1	118.760	505.678
5815	5816	5817	1	124.000	585.760
5816	5817	5818	1	180.000	1255.200
5815	5816	5819	1	117.000	711.280
5816	5819	5820	1	124.000	585.760
5819	5820	5821	1	122.000	669.440
5820	5821	5822	1	180.000	1255.200
5819	5820	5823	1	122.000	669.440
5820	5823	5824	1	180.000	1255.200
5816	5819	5825	1	110.000	585.760
5814	5815	5826	1	124.000	585.760
5815	5826	5827	1	109.500	334.720
5826	5827	5828	1	120.000	585.760
5827	5828	5829	1	120.000	527.184
5828	5829	5830	1	120.000	527.184
5829	5830	5831	1	120.000	527.184
5826	5827	5832	1	120.000	585.760
5815	5826	5833	1	111.100	527.184
5826	5833	5834	1	109.500	418.400
5826	5833	5835	1	109.500	418.400
5826	5833	5836	1	109.500	418.400
5810	5811	5837	1	124.000	585.760
5811	5837	5838	1	111.100	527.184
5837	5838	5839	1	112.700	488.273
5837	5838	5840	1	112.700	488.273
5808	5809	5841	1	124.000	585.760
5805	5806	5842	1	120.000	527.184
5786	5803	5843	1	120.000	585.760
5786	5785	5844	1	109.500	292.880
5786	5785	5845	1	109.500	292.880
5786	5785	5846	1	109.500	292.880
5786	5787	5847	1	109.500	292.880
5786	5787	5848	1	109.500	292.880
5787	5788	5849	1	110.700	313.800
5787	5788	5850	1	110.700	313.800
5790	5791	5851	1	120.000	292.880
5791	5792	5852	1	120.000	292.880
5794	5795	5853	1	120.000	292.880
5795	5796	5854	1	120.000	292.880
5797	5798	5855	1	109.5	0.0
5797	5799	5856	1	120.000	292.880
5794	5800	5857	1	120.000	292.880
5793	5801	5858	1	120.000	292.880
5790	5802	5859	1	120.000	292.880
5803	5804	5860	1	120.000	292.880
5804	5805	5861	1	120.000	292.880
5806	5807	5862	1	123.300	292.880
5807	5808	5863	1	120.000	292.880
5809	5810	5864	1	122.260	502.080
5811	5812	5865	1	120.000	292.880
5812	5813	5866	1	120.000	292.880
5813	5814	5867	1	120.000	292.880
5827	5828	5868	1	120.000	292.880
5828	5829	5869	1	120.000	292.880
5829	5830	5870	1	120.000	292.880
5830	5831	5871	1	120.000	292.880
5827	5832	5872	1	120.000	292.880
5811	5837	5873	1	109.500	292.880
5811	5837	5874	1	109.500	292.880
5838	5839	5875	1	110.700	313.800
5838	5839	5876	1	110.700	313.800
5838	5839	5877	1	110.700	313.800
5838	5840	5878	1	110.700	313.800
5838	5840	5879	1	110.700	313.800
5838	5840	5880	1	110.700	313.800
5809	5841	5881	1	109.500	292.880
5809	5841	5882	1	109.500	292.880
5806	5842	5883	1	120.000	292.880
5803	5843	5884	1	120.000	292.880
5802	5801	5858	1	120.000	292.880
5806	5842	5843	1	120.000	527.184
5791	5790	5802	1	120.000	527.184
5838	5837	5874	1	110.700	313.800
5805	5804	5860	1	120.000	292.880
5842	5843	5884	1	120.000	292.880
5803	5843	5842	1	120.000	527.184
5830	5831	5832	1	120.000	527.184
5845	5785	5846	1	107.800	276.144
5798	5797	5799	1	109.5	0.0
5810	5809	5841	1	124.000	585.760
5838	5841	5881	1	110.700	313.800
5796	5795	5853	1	120.000	292.880
5832	5831	5871	1	120.000	292.880
5879	5840	5880	1	107.800	276.144
5821	5820	5823	1	118.760	505.678
5789	5788	5850	1	109.500	292.880
5789	5788	5849	1	109.500	292.880
5840	5838	5841	1	112.700	488.273
5881	5841	5882	1	107.800	276.144
5827	5832	5831	1	120.000	527.184
5817	5816	5819	1	122.000	669.440
5819	5825	5826	1	111.000	627.600
5808	5807	5862	1	120.000	292.880
5801	5802	5859	1	120.000	292.880
5793	5801	5802	1	120.000	527.184
5830	5829	5869	1	120.000	292.880
5794	5793	5801	1	120.000	527.184
5844	5785	5846	1	107.800	276.144
5813	5812	5865	1	120.000	292.880
5794	5800	5799	1	120.000	527.184
5828	5827	5832	1	120.000	527.184
5820	5819	5825	1	120.000	585.760
5800	5799	5856	1	120.000	292.880
5806	5805	5861	1	120.000	292.880
5834	5833	5836	1	109.100	644.336
5825	5826	5833	1	109.500	418.400
5843	5842	5883	1	120.000	292.880
5876	5839	5877	1	107.800	276.144
5790	5802	5801	1	120.000	527.184
5795	5794	5800	1	120.000	527.184
5838	5837	5873	1	110.700	313.800
5827	5826	5833	1	114.000	527.184
5829	5828	5868	1	120.000	292.880
5825	5826	5827	1	109.500	418.400
5831	5832	5872	1	120.000	292.880
5873	5837	5874	1	107.800	276.144
5792	5791	5851	1	120.000	292.880
5875	5839	5877	1	107.800	276.144
5788	5787	5848	1	110.700	313.800
5812	5811	5837	1	124.000	585.760
5834	5833	5835	1	109.100	644.336
5788	5787	5847	1	110.700	313.800
5875	5839	5876	1	107.800	276.144
5807	5806	5842	1	124.000	585.760
5816	5815	5826	1	124.000	585.760
5804	5803	5843	1	120.000	527.184
5839	5838	5840	1	112.700	488.273
5799	5800	5857	1	120.000	292.880
5815	5826	5825	1	109.500	418.400
5837	5838	5841	1	112.700	488.273
5809	5841	5838	1	111.100	527.184
5849	5788	5850	1	107.800	276.144
5835	5833	5836	1	109.100	644.336
5844	5785	5845	1	107.800	276.144
5797	5796	5854	1	120.000	292.880
5814	5813	5866	1	120.000	292.880
5878	5840	5880	1	107.800	276.144
5847	5787	5848	1	107.800	276.144
5787	5786	5803	1	116.000	418.400
5839	5838	5841	1	112.700	488.273
5811	5810	5864	1	122.260	502.080
5793	5792	5852	1	120.000	292.880
5838	5841	5882	1	110.700	313.800
5878	5840	5879	1	107.800	276.144
5809	5808	5863	1	120.000	292.880
5815	5814	5867	1	123.300	292.880
5831	5830	5870	1	120.000	292.880
5797	5799	5800	1	120.000	527.184
5885	5886	5887	1	107.200	433.462
5886	5887	5888	1	109.470	470.282
5887	5888	5889	1	109.500	418.400
5888	5889	5890	1	111.000	627.600
5889	5890	5891	1	120.000	585.760
5890	5891	5892	1	120.000	527.184
5891	5892	5893	1	120.000	527.184
5892	5893	5894	1	120.000	527.184
5893	5894	5895	1	120.000	527.184
5894	5895	5896	1	120.000	527.184
5895	5896	5897	1	120.000	527.184
5896	5897	5898	1	109.5	0.0
5896	5897	5899	1	120.000	527.184
5893	5894	5900	1	120.000	527.184
5892	5893	5901	1	120.000	527.184
5889	5890	5902	1	120.000	585.760
5885	5886	5903	1	116.000	418.400
5886	5903	5904	1	120.000	585.760
5903	5904	5905	1	120.000	527.184
5904	5905	5906	1	120.000	527.184
5905	5906	5907	1	124.000	585.760
5906	5907	5908	1	117.000	711.280
5907	5908	5909	1	124.000	585.760
5908	5909	5910	1	124.000	585.760
5909	5910	5911	1	124.000	585.760
5910	5911	5912	1	124.000	585.760
5911	5912	5913	1	124.000	585.760
5912	5913	5914	1	124.000	585.760
5913	5914	5915	1	117.000	711.280
5914	5915	5916	1	118.760	505.678
5915	5916	5917	1	124.000	585.760
5916	5917	5918	1	180.000	1255.200
5915	5916	5919	1	117.000	711.280
5916	5919	5920	1	124.000	585.760
5919	5920	5921	1	122.000	669.440
5920	5921	5922	1	180.000	1255.200
5919	5920	5923	1	122.000	669.440
5920	5923	5924	1	180.000	1255.200
5916	5919	5925	1	110.000	585.760
5914	5915	5926	1	124.000	585.760
5915	5926	5927	1	109.500	334.720
5926	5927	5928	1	120.000	585.760
5927	5928	5929	1	120.000	527.184
5928	5929	5930	1	120.000	527.184
5929	5930	5931	1	120.000	527.184
5926	5927	5932	1	120.000	585.760
5915	5926	5933	1	111.100	527.184
5926	5933	5934	1	109.500	418.400
5926	5933	5935	1	109.500	418.400
5926	5933	5936	1	109.500	418.400
5910	5911	5937	1	124.000	585.760
5911	5937	5938	1	111.100	527.184
5937	5938	5939	1	112.700	488.273
5937	5938	5940	1	112.700	488.273
5908	5909	5941	1	124.000	585.760
5905	5906	5942	1	120.000	527.184
5886	5903	5943	1	120.000	585.760
5886	5885	5944	1	109.500	292.880
5886	5885	5945	1	109.500	292.880
5886	5885	5946	1	109.500	292.880
5886	5887	5947	1	109.500	292.880
5886	5887	5948	1	109.500	292.880
5887	5888	5949	1	110.700	313.800
5887	5888	5950	1	110.700	313.800
5890	5891	5951	1	120.000	292.880
5891	5892	5952	1	120.000	292.880
5894	5895	5953	1	120.000	292.880
5895	5896	5954	1	120.000	292.880
5897	5898	5955	1	109.5	0.0
5897	5899	5956	1	120.000	292.880
5894	5900	5957	1	120.000	292.880
5893	5901	5958	1	120.000	292.880
5890	5902	5959	1	120.000	292.880
5903	5904	5960	1	120.000	292.880
5904	5905	5961	1	120.000	292.880
5906	5907	5962	1	123.300	292.880
5907	5908	5963	1	120.000	292.880
5909	5910	5964	1	122.260	502.080
5911	5912	5965	1	120.000	292.880
5912	5913	5966	1	120.000	292.880
5913	5914	5967	1	120.000	292.880
5927	5928	5968	1	120.000	292.880
5928	5929	5969	1	120.000	292.880
5929	5930	5970	1	120.000	292.880
5930	5931	5971	1	120.000	292.880
5927	5932	5972	1	120.000	292.880
5911	5937	5973	1	109.500	292.880
5911	5937	5974	1	109.500	292.880
5938	5939	5975	1	110.700	313.800
5938	5939	5976	1	110.700	313.800
5938	5939	5977	1	110.700	313.800
5938	5940	5978	1	110.700	313.800
5938	5940	5979	1	110.700	313.800
5938	5940	5980	1	110.700	313.800
5909	5941	5981	1	109.500	292.880
5909	5941	5982	1	109.500	292.880
5906	5942	5983	1	120.000	292.880
5903	5943	5984	1	120.000	292.880
5902	5901	5958	1	120.000	292.880
5906	5942	5943	1	120.000	527.184
5891	5890	5902	1	120.000	527.184
5938	5937	5974	1	110.700	313.800
5905	5904	5960	1	120.000	292.880
5942	5943	5984	1	120.000	292.880
5903	5943	5942	1	120.000	527.184
5930	5931	5932	1	120.000	527.184
5945	5885	5946	1	107.800	276.144
5898	5897	5899	1	109.5	0.0
5910	5909	5941	1	124.000	585.760
5938	5941	5981	1	110.700	313.800
5896	5895	5953	1	120.000	292.880
5932	5931	5971	1	120.000	292.880
5979	5940	5980	1	107.800	276.144
5921	5920	5923	1	118.760	505.678
5889	5888	5950	1	109.500	292.880
5889	5888	5949	1	109.500	292.880
5940	5938	5941	1	112.700	488.273
5981	5941	5982	1	107.800	276.144
5927	5932	5931	1	120.000	527.184
5917	5916	5919	1	122.000	669.440
5919	5925	5926	1	111.000	627.600
5908	5907	5962	1	120.000	292.880
5901	5902	5959	1	120.000	292.880
5893	5901	5902	1	120.000	527.184
5930	5929	5969	1	120.000	292.880
5894	5893	5901	1	120.000	527.184
5944	5885	5946	1	107.800	276.144
5913	5912	5965	1	120.000	292.880
5894	5900	5899	1	120.000	527.184
5928	5927	5932	1	120.000	527.184
5920	5919	5925	1	120.000	585.760
5900	5899	5956	1	120.000	292.880
5906	5905	5961	1	120.000	292.880
5934	5933	5936	1	109.100	644.336
5925	5926	5933	1	109.500	418.400
5943	5942	5983	1	120.000	292.880
5976	5939	5977	1	107.800	276.144
5890	5902	5901	1	120.000	527.184
5895	5894	5900	1	120.000	527.184
5938	5937	5973	1	110.700	313.800
5927	5926	5933	1	114.000	527.184
5929	5928	5968	1	120.000	292.880
5925	5926	5927	1	109.500	418.400
5931	5932	5972	1	120.000	292.880
5973	5937	5974	1	107.800	276.144
5892	5891	5951	1	120.000	292.880
5975	5939	5977	1	107.800	276.144
5888	5887	5948	1	110.700	313.800
5912	5911	5937	1	124.000	585.760
5934	5933	5935	1	109.100	644.336
5888	5887	5947	1	110.700	313.800
5975	5939	5976	1	107.800	276.144
5907	5906	5942	1	124.000	585.760
5916	5915	5926	1	124.000	585.760
5904	5903	5943	1	120.000	527.184
5939	5938	5940	1	112.700	488.273
5899	5900	5957	1	120.000	292.880
5915	5926	5925	1	109.500	418.400
5937	5938	5941	1	112.700	488.273
5909	5941	5938	1	111.100	527.184
5949	5888	5950	1	107.800	276.144
5935	5933	5936	1	109.100	644.336
5944	5885	5945	1	107.800	276.144
5897	5896	5954	1	120.000	292.880
5914	5913	5966	1	120.000	292.880
5978	5940	5980	1	107.800	276.144
5947	5887	5948	1	107.800	276.144
5887	5886	5903	1	116.000	418.400
5939	5938	5941	1	112.700	488.273
5911	5910	5964	1	122.260	502.080
5893	5892	5952	1	120.000	292.880
5938	5941	5982	1	110.700	313.800
5978	5940	5979	1	107.800	276.144
5909	5908	5963	1	120.000	292.880
5915	5914	5967	1	123.300	292.880
5931	5930	5970	1	120.000	292.880
5897	5899	5900	1	120.000	527.184
5985	5986	5987	1	107.200	433.462
5986	5987	5988	1	109.470	470.282
5987	5988	5989	1	109.500	418.400
5988	5989	5990	1	111.000	627.600
5989	5990	5991	1	120.000	585.760
5990	5991	5992	1	120.000	527.184
5991	5992	5993	1	120.000	527.184
5992	5993	5994	1	120.000	527.184
5993	5994	5995	1	120.000	527.184
5994	5995	5996	1	120.000	527.184
5995	5996	5997	1	120.000	527.184
5996	5997	5998	1	109.5	0.0
5996	5997	5999	1	120.000	527.184
5993	5994	6000	1	120.000	527.184
5992	5993	6001	1	120.000	527.184
5989	5990	6002	1	120.000	585.760
5985	5986	6003	1	116.000	418.400
5986	6003	6004	1	120.000	585.760
6003	6004	6005	1	120.000	527.184
6004	6005	6006	1	120.000	527.184
6005	6006	6007	1	124.000	585.760
6006	6007	6008	1	117.000	711.280
6007	6008	6009	1	124.000	585.760
6008	6009	6010	1	124.000	585.760
6009	6010	6011	1	124.000	585.760
6010	6011	6012	1	124.000	585.760
6011	6012	6013	1	124.000	585.760
6012	6013	6014	1	124.000	585.760
6013	6014	6015	1	117.000	711.280
6014	6015	6016	1	118.760	505.678
6015	6016	6017	1	124.000	585.760
6016	6017	6018	1	180.000	1255.200
6015	6016	6019	1	117.000	711.280
6016	6019	6020	1	124.000	585.760
6019	6020	6021	1	122.000	669.440
6020	6021	6022	1	180.000	1255.200
6019	6020	6023	1	122.000	669.440
6020	6023	6024	1	180.000	1255.200
6016	6019	6025	1	110.000	585.760
6014	6015	6026	1	124.000	585.760
6015	6026	6027	1	109.500	334.720
6026	6027	6028	1	120.000	585.760
6027	6028	6029	1	120.000	527.184
6028	6029	6030	1	120.000	527.184
6029	6030	6031	1	120.000	527.184
6026	6027	6032	1	120.000	585.760
6015	6026	6033	1	111.100	527.184
6026	6033	6034	1	109.500	418.400
6026	6033	6035	1	109.500	418.400
6026	6033	6036	1	109.500	418.400
6010	6011	6037	1	124.000	585.760
6011	6037	6038	1	111.100	527.184
6037	6038	6039	1	112.700	488.273
6037	6038	6040	1	112.700	488.273
6008	6009	6041	1	124.000	585.760
6005	6006	6042	1	120.000	527.184
5986	6003	6043	1	120.000	585.760
5986	5985	6044	1	109.500	292.880
5986	5985	6045	1	109.500	292.880
5986	5985	6046	1	109.500	292.880
5986	5987	6047	1	109.500	292.880
5986	5987	6048	1	109.500	292.880
5987	5988	6049	1	110.700	313.800
5987	5988	6050	1	110.700	313.800
5990	5991	6051	1	120.000	292.880
5991	5992	6052	1	120.000	292.880
5994	5995	6053	1	120.000	292.880
5995	5996	6054	1	120.000	292.880
5997	5998	6055	1	109.5	0.0
5997	5999	6056	1	120.000	292.880
5994	6000	6057	1	120.000	292.880
5993	6001	6058	1	120.000	292.880
5990	6002	6059	1	120.000	292.880
6003	6004	6060	1	120.000	292.880
6004	6005	6061	1	120.000	292.880
6006	6007	6062	1	123.300	292.880
6007	6008	6063	1	120.000	292.880
6009	6010	6064	1	122.260	502.080
6011	6012	6065	1	120.000	292.880
6012	6013	6066	1	120.000	292.880
6013	6014	6067	1	120.000	292.880
6027	6028	6068	1	120.000	292.880
6028	6029	6069	1	120.000	292.880
6029	6030	6070	1	120.000	292.880
6030	6031	6071	1	120.000	292.880
6027	6032	6072	1	120.000	292.880
6011	6037	6073	1	109.500	292.880
6011	6037	6074	1	109.500	292.880
6038	6039	6075	1	110.700	313.800
6038	6039	6076	1	110.700	313.800
6038	6039	6077	1	110.700	313.800
6038	6040	6078	1	110.700	313.800
6038	6040	6079	1	110.700	313.800
6038	6040	6080	1	110.700	313.800
6009	6041	6081	1	109.500	292.880
6009	6041	6082	1	109.500	292.880
6006	6042	6083	1	120.000	292.880
6003	6043	6084	1	120.000	292.880
6002	6001	6058	1	120.000	292.880
6006	6042	6043	1	120.000	527.184
5991	5990	6002	1	120.000	527.184
6038	6037	6074	1	110.700	313.800
6005	6004	6060	1	120.000	292.880
6042	6043	6084	1	120.000	292.880
6003	6043	6042	1	120.000	527.184
6030	6031	6032	1	120.000	527.184
6045	5985	6046	1	107.800	276.144
5998	5997	5999	1	109.5	0.0
6010	6009	6041	1	124.000	585.760
6038	6041	6081	1	110.700	313.800
5996	5995	6053	1	120.000	292.880
6032	6031	6071	1	120.000	292.880
6079	6040	6080	1	107.800	276.144
6021	6020	6023	1	118.760	505.678
5989	5988	6050	1	109.500	292.880
5989	5988	6049	1	109.500	292.880
6040	6038	6041	1	112.700	488.273
6081	6041	6082	1	107.800	276.144
6027	6032	6031	1	120.000	527.184
6017	6016	6019	1	122.000	669.440
6019	6025	6026	1	111.000	627.600
6008	6007	6062	1	120.000	292.880
6001	6002	6059	1	120.000	292.880
5993	6001	6002	1	120.000	527.184
6030	6029	6069	1	120.000	292.880
5994	5993	6001	1	120.000	527.184
6044	5985	6046	1	107.800	276.144
6013	6012	6065	1	120.000	292.880
5994	6000	5999	1	120.000	527.184
6028	6027	6032	1	120.000	527.184
6020	6019	6025	1	120.000	585.760
6000	5999	6056	1	120.000	292.880
6006	6005	6061	1	120.000	292.880
6034	6033	6036	1	109.100	644.336
6025	6026	6033	1	109.500	418.400
6043	6042	6083	1	120.000	292.880
6076	6039	6077	1	107.800	276.144
5990	6002	6001	1	120.000	527.184
5995	5994	6000	1	120.000	527.184
6038	6037	6073	1	110.700	313.800
6027	6026	6033	1	114.000	527.184
6029	6028	6068	1	120.000	292.880
6025	6026	6027	1	109.500	418.400
6031	6032	6072	1	120.000	292.880
6073	6037	6074	1	107.800	276.144
5992	5991	6051	1	120.000	292.880
6075	6039	6077	1	107.800	276.144
5988	5987	6048	1	110.700	313.800
6012	6011	6037	1	124.000	585.760
6034	6033	6035	1	109.100	644.336
5988	5987	6047	1	110.700	313.800
6075	6039	6076	1	107.800	276.144
6007	6006	6042	1	124.000	585.760
6016	6015	6026	1	124.000	585.760
6004	6003	6043	1	120.000	527.184
6039	6038	6040	1	112.700	488.273
5999	6000	6057	1	120.000	292.880
6015	6026	6025	1	109.500	418.400
6037	6038	6041	1	112.700	488.273
6009	6041	6038	1	111.100	527.184
6049	5988	6050	1	107.800	276.144
6035	6033	6036	1	109.100	644.336
6044	5985	6045	1	107.800	276.144
5997	5996	6054	1	120.000	292.880
6014	6013	6066	1	120.000	292.880
6078	6040	6080	1	107.800	276.144
6047	5987	6048	1	107.800	276.144
5987	5986	6003	1	116.000	418.400
6039	6038	6041	1	112.700	488.273
6011	6010	6064	1	122.260	502.080
5993	5992	6052	1	120.000	292.880
6038	6041	6082	1	110.700	313.800
6078	6040	6079	1	107.800	276.144
6009	6008	6063	1	120.000	292.880
6015	6014	6067	1	123.300	292.880
6031	6030	6070	1	120.000	292.880
5997	5999	6000	1	120.000	527.184
6085	6086	6087	1	107.200	433.462
6086	6087	6088	1	109.470	470.282
6087	6088	6089	1	109.500	418.400
6088	6089	6090	1	111.000	627.600
6089	6090	6091	1	120.000	585.760
6090	6091	6092	1	120.000	527.184
6091	6092	6093	1	120.000	527.184
6092	6093	6094	1	120.000	527.184
6093	6094	6095	1	120.000	527.184
6094	6095	6096	1	120.000	527.184
6095	6096	6097	1	120.000	527.184
6096	6097	6098	1	109.5	0.0
6096	6097	6099	1	120.000	527.184
6093	6094	6100	1	120.000	527.184
6092	6093	6101	1	120.000	527.184
6089	6090	6102	1	120.000	585.760
6085	6086	6103	1	116.000	418.400
6086	6103	6104	1	120.000	585.760
6103	6104	6105	1	120.000	527.184
6104	6105	6106	1	120.000	527.184
6105	6106	6107	1	124.000	585.760
6106	6107	6108	1	117.000	711.280
6107	6108	6109	1	124.000	585.760
6108	6109	6110	1	124.000	585.760
6109	6110	6111	1	124.000	585.760
6110	6111	6112	1	124.000	585.760
6111	6112	6113	1	124.000	585.760
6112	6113	6114	1	124.000	585.760
6113	6114	6115	1	117.000	711.280
6114	6115	6116	1	118.760	505.678
6115	6116	6117	1	124.000	585.760
6116	6117	6118	1	180.000	1255.200
6115	6116	6119	1	117.000	711.280
6116	6119	6120	1	124.000	585.760
6119	6120	6121	1	122.000	669.440
6120	6121	6122	1	180.000	1255.200
6119	6120	6123	1	122.000	669.440
6120	6123	6124	1	180.000	1255.200
6116	6119	6125	1	110.000	585.760
6114	6115	6126	1	124.000	585.760
6115	6126	6127	1	109.500	334.720
6126	6127	6128	1	120.000	585.760
6127	6128	6129	1	120.000	527.184
6128	6129	6130	1	120.000	527.184
6129	6130	6131	1	120.000	527.184
6126	6127	6132	1	120.000	585.760
6115	6126	6133	1	111.100	527.184
6126	6133	6134	1	109.500	418.400
6126	6133	6135	1	109.500	418.400
6126	6133	6136	1	109.500	418.400
6110	6111	6137	1	124.000	585.760
6111	6137	6138	1	111.100	527.184
6137	6138	6139	1	112.700	488.273
6137	6138	6140	1	112.700	488.273
6108	6109	6141	1	124.000	585.760
6105	6106	6142	1	120.000	527.184
6086	6103	6143	1	120.000	585.760
6086	6085	6144	1	109.500	292.880
6086	6085	6145	1	109.500	292.880
6086	6085	6146	1	109.500	292.880
6086	6087	6147	1	109.500	292.880
6086	6087	6148	1	109.500	292.880
6087	6088	6149	1	110.700	313.800
6087	6088	6150	1	110.700	313.800
6090	6091	6151	1	120.000	292.880
6091	6092	6152	1	120.000	292.880
6094	6095	6153	1	120.000	292.880
6095	6096	6154	1	120.000	292.880
6097	6098	6155	1	109.5	0.0
6097	6099	6156	1	120.000	292.880
6094	6100	6157	1	120.000	292.880
6093	6101	6158	1	120.000	292.880
6090	6102	6159	1	120.000	292.880
6103	6104	6160	1	120.000	292.880
6104	6105	6161	1	120.000	292.880
6106	6107	6162	1	123.300	292.880
6107	6108	6163	1	120.000	292.880
6109	6110	6164	1	122.260	502.080
6111	6112	6165	1	120.000	292.880
6112	6113	6166	1	120.000	292.880
6113	6114	6167	1	120.000	292.880
6127	6128	6168	1	120.000	292.880
6128	6129	6169	1	120.000	292.880
6129	6130	6170	1	120.000	292.880
6130	6131	6171	1	120.000	292.880
6127	6132	6172	1	120.000	292.880
6111	6137	6173	1	109.500	292.880
6111	6137	6174	1	109.500	292.880
6138	6139	6175	1	110.700	313.800
6138	6139	6176	1	110.700	313.800
6138	6139	6177	1	110.700	313.800
6138	6140	6178	1	110.700	313.800
6138	6140	6179	1	110.700	313.800
6138	6140	6180	1	110.700	313.800
6109	6141	6181	1	109.500	292.880
6109	6141	6182	1	109.500	292.880
6106	6142	6183	1	120.000	292.880
6103	6143	6184	1	120.000	292.880
6102	6101	6158	1	120.000	292.880
6106	6142	6143	1	120.000	527.184
6091	6090	6102	1	120.000	527.184
6138	6137	6174	1	110.700	313.800
6105	6104	6160	1	120.000	292.880
6142	6143	6184	1	120.000	292.880
6103	6143	6142	1	120.000	527.184
6130	6131	6132	1	120.000	527.184
6145	6085	6146	1	107.800	276.144
6098	6097	6099	1	109.5	0.0
6110	6109	6141	1	124.000	585.760
6138	6141	6181	1	110.700	313.800
6096	6095	6153	1	120.000	292.880
6132	6131	6171	1	120.000	292.880
6179	6140	6180	1	107.800	276.144
6121	6120	6123	1	118.760	505.678
6089	6088	6150	1	109.500	292.880
6089	6088	6149	1	109.500	292.880
6140	6138	6141	1	112.700	488.273
6181	6141	6182	1	107.800	276.144
6127	6132	6131	1	120.000	527.184
6117	6116	6119	1	122.000	669.440
6119	6125	6126	1	111.000	627.600
6108	6107	6162	1	120.000	292.880
6101	6102	6159	1	120.000	292.880
6093	6101	6102	1	120.000	527.184
6130	6129	6169	1	120.000	292.880
6094	6093	6101	1	120.000	527.184
6144	6085	6146	1	107.800	276.144
6113	6112	6165	1	120.000	292.880
6094	6100	6099	1	120.000	527.184
6128	6127	6132	1	120.000	527.184
6120	6119	6125	1	120.000	585.760
6100	6099	6156	1	120.000	292.880
6106	6105	6161	1	120.000	292.880
6134	6133	6136	1	109.100	644.336
6125	6126	6133	1	109.500	418.400
6143	6142	6183	1	120.000	292.880
6176	6139	6177	1	107.800	276.144
6090	6102	6101	1	120.000	527.184
6095	6094	6100	1	120.000	527.184
6138	6137	6173	1	110.700	313.800
6127	6126	6133	1	114.000	527.184
6129	6128	6168	1	120.000	292.880
6125	6126	6127	1	109.500	418.400
6131	6132	6172	1	120.000	292.880
6173	6137	6174	1	107.800	276.144
6092	6091	6151	1	120.000	292.880
6175	6139	6177	1	107.800	276.144
6088	6087	6148	1	110.700	313.800
6112	6111	6137	1	124.000	585.760
6134	6133	6135	1	109.100	644.336
6088	6087	6147	1	110.700	313.800
6175	6139	6176	1	107.800	276.144
6107	6106	6142	1	124.000	585.760
6116	6115	6126	1	124.000	585.760
6104	6103	6143	1	120.000	527.184
6139	6138	6140	1	112.700	488.273
6099	6100	6157	1	120.000	292.880
6115	6126	6125	1	109.500	418.400
6137	6138	6141	1	112.700	488.273
6109	6141	6138	1	111.100	527.184
6149	6088	6150	1	107.800	276.144
6135	6133	6136	1	109.100	644.336
6144	6085	6145	1	107.800	276.144
6097	6096	6154	1	120.000	292.880
6114	6113	6166	1	120.000	292.880
6178	6140	6180	1	107.800	276.144
6147	6087	6148	1	107.800	276.144
6087	6086	6103	1	116.000	418.400
6139	6138	6141	1	112.700	488.273
6111	6110	6164	1	122.260	502.080
6093	6092	6152	1	120.000	292.880
6138	6141	6182	1	110.700	313.800
6178	6140	6179	1	107.800	276.144
6109	6108	6163	1	120.000	292.880
6115	6114	6167	1	123.300	292.880
6131	6130	6170	1	120.000	292.880
6097	6099	6100	1	120.000	527.184
6185	6186	6187	1	107.200	433.462
6186	6187	6188	1	109.470	470.282
6187	6188	6189	1	109.500	418.400
6188	6189	6190	1	111.000	627.600
6189	6190	6191	1	120.000	585.760
6190	6191	6192	1	120.000	527.184
6191	6192	6193	1	120.000	527.184
6192	6193	6194	1	120.000	527.184
6193	6194	6195	1	120.000	527.184
6194	6195	6196	1	120.000	527.184
6195	6196	6197	1	120.000	527.184
6196	6197	6198	1	109.5	0.0
6196	6197	6199	1	120.000	527.184
6193	6194	6200	1	120.000	527.184
6192	6193	6201	1	120.000	527.184
6189	6190	6202	1	120.000	585.760
6185	6186	6203	1	116.000	418.400
6186	6203	6204	1	120.000	585.760
6203	6204	6205	1	120.000	527.184
6204	6205	6206	1	120.000	527.184
6205	6206	6207	1	124.000	585.760
6206	6207	6208	1	117.000	711.280
6207	6208	6209	1	124.000	585.760
6208	6209	6210	1	124.000	585.760
6209	6210	6211	1	124.000	585.760
6210	6211	6212	1	124.000	585.760
6211	6212	6213	1	124.000	585.760
6212	6213	6214	1	124.000	585.760
6213	6214	6215	1	117.000	711.280
6214	6215	6216	1	118.760	505.678
6215	6216	6217	1	124.000	585.760
6216	6217	6218	1	180.000	1255.200
6215	6216	6219	1	117.000	711.280
6216	6219	6220	1	124.000	585.760
6219	6220	6221	1	122.000	669.440
6220	6221	6222	1	180.000	1255.200
6219	6220	6223	1	122.000	669.440
6220	6223	6224	1	180.000	1255.200
6216	6219	6225	1	110.000	585.760
6214	6215	6226	1	124.000	585.760
6215	6226	6227	1	109.500	334.720
6226	6227	6228	1	120.000	585.760
6227	6228	6229	1	120.000	527.184
6228	6229	6230	1	120.000	527.184
6229	6230	6231	1	120.000	527.184
6226	6227	6232	1	120.000	585.760
6215	6226	6233	1	111.100	527.184
6226	6233	6234	1	109.500	418.400
6226	6233	6235	1	109.500	418.400
6226	6233	6236	1	109.500	418.400
6210	6211	6237	1	124.000	585.760
6211	6237	6238	1	111.100	527.184
6237	6238	6239	1	112.700	488.273
6237	6238	6240	1	112.700	488.273
6208	6209	6241	1	124.000	585.760
6205	6206	6242	1	120.000	527.184
6186	6203	6243	1	120.000	585.760
6186	6185	6244	1	109.500	292.880
6186	6185	6245	1	109.500	292.880
6186	6185	6246	1	109.500	292.880
6186	6187	6247	1	109.500	292.880
6186	6187	6248	1	109.500	292.880
6187	6188	6249	1	110.700	313.800
6187	6188	6250	1	110.700	313.800
6190	6191	6251	1	120.000	292.880
6191	6192	6252	1	120.000	292.880
6194	6195	6253	1	120.000	292.880
6195	6196	6254	1	120.000	292.880
6197	6198	6255	1	109.5	0.0
6197	6199	6256	1	120.000	292.880
6194	6200	6257	1	120.000	292.880
6193	6201	6258	1	120.000	292.880
6190	6202	6259	1	120.000	292.880
6203	6204	6260	1	120.000	292.880
6204	6205	6261	1	120.000	292.880
6206	6207	6262	1	123.300	292.880
6207	6208	6263	1	120.000	292.880
6209	6210	6264	1	122.260	502.080
6211	6212	6265	1	120.000	292.880
6212	6213	6266	1	120.000	292.880
6213	6214	6267	1	120.000	292.880
6227	6228	6268	1	120.000	292.880
6228	6229	6269	1	120.000	292.880
6229	6230	6270	1	120.000	292.880
6230	6231	6271	1	120.000	292.880
6227	6232	6272	1	120.000	292.880
6211	6237	6273	1	109.500	292.880
6211	6237	6274	1	109.500	292.880
6238	6239	6275	1	110.700	313.800
6238	6239	6276	1	110.700	313.800
6238	6239	6277	1	110.700	313.800
6238	6240	6278	1	110.700	313.800
6238	6240	6279	1	110.700	313.800
6238	6240	6280	1	110.700	313.800
6209	6241	6281	1	109.500	292.880
6209	6241	6282	1	109.500	292.880
6206	6242	6283	1	120.000	292.880
6203	6243	6284	1	120.000	292.880
6202	6201	6258	1	120.000	292.880
6206	6242	6243	1	120.000	527.184
6191	6190	6202	1	120.000	527.184
6238	6237	6274	1	110.700	313.800
6205	6204	6260	1	120.000	292.880
6242	6243	6284	1	120.000	292.880
6203	6243	6242	1	120.000	527.184
6230	6231	6232	1	120.000	527.184
6245	6185	6246	1	107.800	276.144
6198	6197	6199	1	109.5	0.0
6210	6209	6241	1	124.000	585.760
6238	6241	6281	1	110.700	313.800
6196	6195	6253	1	120.000	292.880
6232	6231	6271	1	120.000	292.880
6279	6240	6280	1	107.800	276.144
6221	6220	6223	1	118.760	505.678
6189	6188	6250	1	109.500	292.880
6189	6188	6249	1	109.500	292.880
6240	6238	6241	1	112.700	488.273
6281	6241	6282	1	107.800	276.144
6227	6232	6231	1	120.000	527.184
6217	6216	6219	1	122.000	669.440
6219	6225	6226	1	111.000	627.600
6208	6207	6262	1	120.000	292.880
6201	6202	6259	1	120.000	292.880
6193	6201	6202	1	120.000	527.184
6230	6229	6269	1	120.000	292.880
6194	6193	6201	1	120.000	527.184
6244	6185	6246	1	107.800	276.144
6213	6212	6265	1	120.000	292.880
6194	6200	6199	1	120.000	527.184
6228	6227	6232	1	120.000	527.184
6220	6219	6225	1	120.000	585.760
6200	6199	6256	1	120.000	292.880
6206	6205	6261	1	120.000	292.880
6234	6233	6236	1	109.100	644.336
6225	6226	6233	1	109.500	418.400
6243	6242	6283	1	120.000	292.880
6276	6239	6277	1	107.800	276.144
6190	6202	6201	1	120.000	527.184
6195	6194	6200	1	120.000	527.184
6238	6237	6273	1	110.700	313.800
6227	6226	6233	1	114.000	527.184
6229	6228	6268	1	120.000	292.880
6225	6226	6227	1	109.500	418.400
6231	6232	6272	1	120.000	292.880
6273	6237	6274	1	107.800	276.144
6192	6191	6251	1	120.000	292.880
6275	6239	6277	1	107.800	276.144
6188	6187	6248	1	110.700	313.800
6212	6211	6237	1	124.000	585.760
6234	6233	6235	1	109.100	644.336
6188	6187	6247	1	110.700	313.800
6275	6239	6276	1	107.800	276.144
6207	6206	6242	1	124.000	585.760
6216	6215	6226	1	124.000	585.760
6204	6203	6243	1	120.000	527.184
6239	6238	6240	1	112.700	488.273
6199	6200	6257	1	120.000	292.880
6215	6226	6225	1	109.500	418.400
6237	6238	6241	1	112.700	488.273
6209	6241	6238	1	111.100	527.184
6249	6188	6250	1	107.800	276.144
6235	6233	6236	1	109.100	644.336
6244	6185	6245	1	107.800	276.144
6197	6196	6254	1	120.000	292.880
6214	6213	6266	1	120.000	292.880
6278	6240	6280	1	107.800	276.144
6247	6187	6248	1	107.800	276.144
6187	6186	6203	1	116.000	418.400
6239	6238	6241	1	112.700	488.273
6211	6210	6264	1	122.260	502.080
6193	6192	6252	1	120.000	292.880
6238	6241	6282	1	110.700	313.800
6278	6240	6279	1	107.800	276.144
6209	6208	6263	1	120.000	292.880
6215	6214	6267	1	123.300	292.880
6231	6230	6270	1	120.000	292.880
6197	6199	6200	1	120.000	527.184
6285	6286	6287	1	107.200	433.462
6286	6287	6288	1	109.470	470.282
6287	6288	6289	1	109.500	418.400
6288	6289	6290	1	111.000	627.600
6289	6290	6291	1	120.000	585.760
6290	6291	6292	1	120.000	527.184
6291	6292	6293	1	120.000	527.184
6292	6293	6294	1	120.000	527.184
6293	6294	6295	1	120.000	527.184
6294	6295	6296	1	120.000	527.184
6295	6296	6297	1	120.000	527.184
6296	6297	6298	1	109.5	0.0
6296	6297	6299	1	120.000	527.184
6293	6294	6300	1	120.000	527.184
6292	6293	6301	1	120.000	527.184
6289	6290	6302	1	120.000	585.760
6285	6286	6303	1	116.000	418.400
6286	6303	6304	1	120.000	585.760
6303	6304	6305	1	120.000	527.184
6304	6305	6306	1	120.000	527.184
6305	6306	6307	1	124.000	585.760
6306	6307	6308	1	117.000	711.280
6307	6308	6309	1	124.000	585.760
6308	6309	6310	1	124.000	585.760
6309	6310	6311	1	124.000	585.760
6310	6311	6312	1	124.000	585.760
6311	6312	6313	1	124.000	585.760
6312	6313	6314	1	124.000	585.760
6313	6314	6315	1	117.000	711.280
6314	6315	6316	1	118.760	505.678
6315	6316	6317	1	124.000	585.760
6316	6317	6318	1	180.000	1255.200
6315	6316	6319	1	117.000	711.280
6316	6319	6320	1	124.000	585.760
6319	6320	6321	1	122.000	669.440
6320	6321	6322	1	180.000	1255.200
6319	6320	6323	1	122.000	669.440
6320	6323	6324	1	180.000	1255.200
6316	6319	6325	1	110.000	585.760
6314	6315	6326	1	124.000	585.760
6315	6326	6327	1	109.500	334.720
6326	6327	6328	1	120.000	585.760
6327	6328	6329	1	120.000	527.184
6328	6329	6330	1	120.000	527.184
6329	6330	6331	1	120.000	527.184
6326	6327	6332	1	120.000	585.760
6315	6326	6333	1	111.100	527.184
6326	6333	6334	1	109.500	418.400
6326	6333	6335	1	109.500	418.400
6326	6333	6336	1	109.500	418.400
6310	6311	6337	1	124.000	585.760
6311	6337	6338	1	111.100	527.184
6337	6338	6339	1	112.700	488.273
6337	6338	6340	1	112.700	488.273
6308	6309	6341	1	124.000	585.760
6305	6306	6342	1	120.000	527.184
6286	6303	6343	1	120.000	585.760
6286	6285	6344	1	109.500	292.880
6286	6285	6345	1	109.500	292.880
6286	6285	6346	1	109.500	292.880
6286	6287	6347	1	109.500	292.880
6286	6287	6348	1	109.500	292.880
6287	6288	6349	1	110.700	313.800
6287	6288	6350	1	110.700	313.800
6290	6291	6351	1	120.000	292.880
6291	6292	6352	1	120.000	292.880
6294	6295	6353	1	120.000	292.880
6295	6296	6354	1	120.000	292.880
6297	6298	6355	1	109.5	0.0
6297	6299	6356	1	120.000	292.880
6294	6300	6357	1	120.000	292.880
6293	6301	6358	1	120.000	292.880
6290	6302	6359	1	120.000	292.880
6303	6304	6360	1	120.000	292.880
6304	6305	6361	1	120.000	292.880
6306	6307	6362	1	123.300	292.880
6307	6308	6363	1	120.000	292.880
6309	6310	6364	1	122.260	502.080
6311	6312	6365	1	120.000	292.880
6312	6313	6366	1	120.000	292.880
6313	6314	6367	1	120.000	292.880
6327	6328	6368	1	120.000	292.880
6328	6329	6369	1	120.000	292.880
6329	6330	6370	1	120.000	292.880
6330	6331	6371	1	120.000	292.880
6327	6332	6372	1	120.000	292.880
6311	6337	6373	1	109.500	292.880
6311	6337	6374	1	109.500	292.880
6338	6339	6375	1	110.700	313.800
6338	6339	6376	1	110.700	313.800
6338	6339	6377	1	110.700	313.800
6338	6340	6378	1	110.700	313.800
6338	6340	6379	1	110.700	313.800
6338	6340	6380	1	110.700	313.800
6309	6341	6381	1	109.500	292.880
6309	6341	6382	1	109.500	292.880
6306	6342	6383	1	120.000	292.880
6303	6343	6384	1	120.000	292.880
6302	6301	6358	1	120.000	292.880
6306	6342	6343	1	120.000	527.184
6291	6290	6302	1	120.000	527.184
6338	6337	6374	1	110.700	313.800
6305	6304	6360	1	120.000	292.880
6342	6343	6384	1	120.000	292.880
6303	6343	6342	1	120.000	527.184
6330	6331	6332	1	120.000	527.184
6345	6285	6346	1	107.800	276.144
6298	6297	6299	1	109.5	0.0
6310	6309	6341	1	124.000	585.760
6338	6341	6381	1	110.700	313.800
6296	6295	6353	1	120.000	292.880
6332	6331	6371	1	120.000	292.880
6379	6340	6380	1	107.800	276.144
6321	6320	6323	1	118.760	505.678
6289	6288	6350	1	109.500	292.880
6289	6288	6349	1	109.500	292.880
6340	6338	6341	1	112.700	488.273
6381	6341	6382	1	107.800	276.144
6327	6332	6331	1	120.000	527.184
6317	6316	6319	1	122.000	669.440
6319	6325	6326	1	111.000	627.600
6308	6307	6362	1	120.000	292.880
6301	6302	6359	1	120.000	292.880
6293	6301	6302	1	120.000	527.184
6330	6329	6369	1	120.000	292.880
6294	6293	6301	1	120.000	527.184
6344	6285	6346	1	107.800	276.144
6313	6312	6365	1	120.000	292.880
6294	6300	6299	1	120.000	527.184
6328	6327	6332	1	120.000	527.184
6320	6319	6325	1	120.000	585.760
6300	6299	6356	1	120.000	292.880
6306	6305	6361	1	120.000	292.880
6334	6333	6336	1	109.100	644.336
6325	6326	6333	1	109.500	418.400
6343	6342	6383	1	120.000	292.880
6376	6339	6377	1	107.800	276.144
6290	6302	6301	1	120.000	527.184
6295	6294	6300	1	120.000	527.184
6338	6337	6373	1	110.700	313.800
6327	6326	6333	1	114.000	527.184
6329	6328	6368	1	120.000	292.880
6325	6326	6327	1	109.500	418.400
6331	6332	6372	1	120.000	292.880
6373	6337	6374	1	107.800	276.144
6292	6291	6351	1	120.000	292.880
6375	6339	6377	1	107.800	276.144
6288	6287	6348	1	110.700	313.800
6312	6311	6337	1	124.000	585.760
6334	6333	6335	1	109.100	644.336
6288	6287	6347	1	110.700	313.800
6375	6339	6376	1	107.800	276.144
6307	6306	6342	1	124.000	585.760
6316	6315	6326	1	124.000	585.760
6304	6303	6343	1	120.000	527.184
6339	6338	6340	1	112.700	488.273
6299	6300	6357	1	120.000	292.880
6315	6326	6325	1	109.500	418.400
6337	6338	6341	1	112.700	488.273
6309	6341	6338	1	111.100	527.184
6349	6288	6350	1	107.800	276.144
6335	6333	6336	1	109.100	644.336
6344	6285	6345	1	107.800	276.144
6297	6296	6354	1	120.000	292.880
6314	6313	6366	1	120.000	292.880
6378	6340	6380	1	107.800	276.144
6347	6287	6348	1	107.800	276.144
6287	6286	6303	1	116.000	418.400
6339	6338	6341	1	112.700	488.273
6311	6310	6364	1	122.260	502.080
6293	6292	6352	1	120.000	292.880
6338	6341	6382	1	110.700	313.800
6378	6340	6379	1	107.800	276.144
6309	6308	6363	1	120.000	292.880
6315	6314	6367	1	123.300	292.880
6331	6330	6370	1	120.000	292.880
6297	6299	6300	1	120.000	527.184
6385	6386	6387	1	107.200	433.462
6386	6387	6388	1	109.470	470.282
6387	6388	6389	1	109.500	418.400
6388	6389	6390	1	111.000	627.600
6389	6390	6391	1	120.000	585.760
6390	6391	6392	1	120.000	527.184
6391	6392	6393	1	120.000	527.184
6392	6393	6394	1	120.000	527.184
6393	6394	6395	1	120.000	527.184
6394	6395	6396	1	120.000	527.184
6395	6396	6397	1	120.000	527.184
6396	6397	6398	1	109.5	0.0
6396	6397	6399	1	120.000	527.184
6393	6394	6400	1	120.000	527.184
6392	6393	6401	1	120.000	527.184
6389	6390	6402	1	120.000	585.760
6385	6386	6403	1	116.000	418.400
6386	6403	6404	1	120.000	585.760
6403	6404	6405	1	120.000	527.184
6404	6405	6406	1	120.000	527.184
6405	6406	6407	1	124.000	585.760
6406	6407	6408	1	117.000	711.280
6407	6408	6409	1	124.000	585.760
6408	6409	6410	1	124.000	585.760
6409	6410	6411	1	124.000	585.760
6410	6411	6412	1	124.000	585.760
6411	6412	6413	1	124.000	585.760
6412	6413	6414	1	124.000	585.760
6413	6414	6415	1	117.000	711.280
6414	6415	6416	1	118.760	505.678
6415	6416	6417	1	124.000	585.760
6416	6417	6418	1	180.000	1255.200
6415	6416	6419	1	117.000	711.280
6416	6419	6420	1	124.000	585.760
6419	6420	6421	1	122.000	669.440
6420	6421	6422	1	180.000	1255.200
6419	6420	6423	1	122.000	669.440
6420	6423	6424	1	180.000	1255.200
6416	6419	6425	1	110.000	585.760
6414	6415	6426	1	124.000	585.760
6415	6426	6427	1	109.500	334.720
6426	6427	6428	1	120.000	585.760
6427	6428	6429	1	120.000	527.184
6428	6429	6430	1	120.000	527.184
6429	6430	6431	1	120.000	527.184
6426	6427	6432	1	120.000	585.760
6415	6426	6433	1	111.100	527.184
6426	6433	6434	1	109.500	418.400
6426	6433	6435	1	109.500	418.400
6426	6433	6436	1	109.500	418.400
6410	6411	6437	1	124.000	585.760
6411	6437	6438	1	111.100	527.184
6437	6438	6439	1	112.700	488.273
6437	6438	6440	1	112.700	488.273
6408	6409	6441	1	124.000	585.760
6405	6406	6442	1	120.000	527.184
6386	6403	6443	1	120.000	585.760
6386	6385	6444	1	109.500	292.880
6386	6385	6445	1	109.500	292.880
6386	6385	6446	1	109.500	292.880
6386	6387	6447	1	109.500	292.880
6386	6387	6448	1	109.500	292.880
6387	6388	6449	1	110.700	313.800
6387	6388	6450	1	110.700	313.800
6390	6391	6451	1	120.000	292.880
6391	6392	6452	1	120.000	292.880
6394	6395	6453	1	120.000	292.880
6395	6396	6454	1	120.000	292.880
6397	6398	6455	1	109.5	0.0
6397	6399	6456	1	120.000	292.880
6394	6400	6457	1	120.000	292.880
6393	6401	6458	1	120.000	292.880
6390	6402	6459	1	120.000	292.880
6403	6404	6460	1	120.000	292.880
6404	6405	6461	1	120.000	292.880
6406	6407	6462	1	123.300	292.880
6407	6408	6463	1	120.000	292.880
6409	6410	6464	1	122.260	502.080
6411	6412	6465	1	120.000	292.880
6412	6413	6466	1	120.000	292.880
6413	6414	6467	1	120.000	292.880
6427	6428	6468	1	120.000	292.880
6428	6429	6469	1	120.000	292.880
6429	6430	6470	1	120.000	292.880
6430	6431	6471	1	120.000	292.880
6427	6432	6472	1	120.000	292.880
6411	6437	6473	1	109.500	292.880
6411	6437	6474	1	109.500	292.880
6438	6439	6475	1	110.700	313.800
6438	6439	6476	1	110.700	313.800
6438	6439	6477	1	110.700	313.800
6438	6440	6478	1	110.700	313.800
6438	6440	6479	1	110.700	313.800
6438	6440	6480	1	110.700	313.800
6409	6441	6481	1	109.500	292.880
6409	6441	6482	1	109.500	292.880
6406	6442	6483	1	120.000	292.880
6403	6443	6484	1	120.000	292.880
6402	6401	6458	1	120.000	292.880
6406	6442	6443	1	120.000	527.184
6391	6390	6402	1	120.000	527.184
6438	6437	6474	1	110.700	313.800
6405	6404	6460	1	120.000	292.880
6442	6443	6484	1	120.000	292.880
6403	6443	6442	1	120.000	527.184
6430	6431	6432	1	120.000	527.184
6445	6385	6446	1	107.800	276.144
6398	6397	6399	1	109.5	0.0
6410	6409	6441	1	124.000	585.760
6438	6441	6481	1	110.700	313.800
6396	6395	6453	1	120.000	292.880
6432	6431	6471	1	120.000	292.880
6479	6440	6480	1	107.800	276.144
6421	6420	6423	1	118.760	505.678
6389	6388	6450	1	109.500	292.880
6389	6388	6449	1	109.500	292.880
6440	6438	6441	1	112.700	488.273
6481	6441	6482	1	107.800	276.144
6427	6432	6431	1	120.000	527.184
6417	6416	6419	1	122.000	669.440
6419	6425	6426	1	111.000	627.600
6408	6407	6462	1	120.000	292.880
6401	6402	6459	1	120.000	292.880
6393	6401	6402	1	120.000	527.184
6430	6429	6469	1	120.000	292.880
6394	6393	6401	1	120.000	527.184
6444	6385	6446	1	107.800	276.144
6413	6412	6465	1	120.000	292.880
6394	6400	6399	1	120.000	527.184
6428	6427	6432	1	120.000	527.184
6420	6419	6425	1	120.000	585.760
6400	6399	6456	1	120.000	292.880
6406	6405	6461	1	120.000	292.880
6434	6433	6436	1	109.100	644.336
6425	6426	6433	1	109.500	418.400
6443	6442	6483	1	120.000	292.880
6476	6439	6477	1	107.800	276.144
6390	6402	6401	1	120.000	527.184
6395	6394	6400	1	120.000	527.184
6438	6437	6473	1	110.700	313.800
6427	6426	6433	1	114.000	527.184
6429	6428	6468	1	120.000	292.880
6425	6426	6427	1	109.500	418.400
6431	6432	6472	1	120.000	292.880
6473	6437	6474	1	107.800	276.144
6392	6391	6451	1	120.000	292.880
6475	6439	6477	1	107.800	276.144
6388	6387	6448	1	110.700	313.800
6412	6411	6437	1	124.000	585.760
6434	6433	6435	1	109.100	644.336
6388	6387	6447	1	110.700	313.800
6475	6439	6476	1	107.800	276.144
6407	6406	6442	1	124.000	585.760
6416	6415	6426	1	124.000	585.760
6404	6403	6443	1	120.000	527.184
6439	6438	6440	1	112.700	488.273
6399	6400	6457	1	120.000	292.880
6415	6426	6425	1	109.500	418.400
6437	6438	6441	1	112.700	488.273
6409	6441	6438	1	111.100	527.184
6449	6388	6450	1	107.800	276.144
6435	6433	6436	1	109.100	644.336
6444	6385	6445	1	107.800	276.144
6397	6396	6454	1	120.000	292.880
6414	6413	6466	1	120.000	292.880
6478	6440	6480	1	107.800	276.144
6447	6387	6448	1	107.800	276.144
6387	6386	6403	1	116.000	418.400
6439	6438	6441	1	112.700	488.273
6411	6410	6464	1	122.260	502.080
6393	6392	6452	1	120.000	292.880
6438	6441	6482	1	110.700	313.800
6478	6440	6479	1	107.800	276.144
6409	6408	6463	1	120.000	292.880
6415	6414	6467	1	123.300	292.880
6431	6430	6470	1	120.000	292.880
6397	6399	6400	1	120.000	527.184
6485	6486	6487	1	107.200	433.462
6486	6487	6488	1	109.470	470.282
6487	6488	6489	1	109.500	418.400
6488	6489	6490	1	111.000	627.600
6489	6490	6491	1	120.000	585.760
6490	6491	6492	1	120.000	527.184
6491	6492	6493	1	120.000	527.184
6492	6493	6494	1	120.000	527.184
6493	6494	6495	1	120.000	527.184
6494	6495	6496	1	120.000	527.184
6495	6496	6497	1	120.000	527.184
6496	6497	6498	1	109.5	0.0
6496	6497	6499	1	120.000	527.184
6493	6494	6500	1	120.000	527.184
6492	6493	6501	1	120.000	527.184
6489	6490	6502	1	120.000	585.760
6485	6486	6503	1	116.000	418.400
6486	6503	6504	1	120.000	585.760
6503	6504	6505	1	120.000	527.184
6504	6505	6506	1	120.000	527.184
6505	6506	6507	1	124.000	585.760
6506	6507	6508	1	117.000	711.280
6507	6508	6509	1	124.000	585.760
6508	6509	6510	1	124.000	585.760
6509	6510	6511	1	124.000	585.760
6510	6511	6512	1	124.000	585.760
6511	6512	6513	1	124.000	585.760
6512	6513	6514	1	124.000	585.760
6513	6514	6515	1	117.000	711.280
6514	6515	6516	1	118.760	505.678
6515	6516	6517	1	124.000	585.760
6516	6517	6518	1	180.000	1255.200
6515	6516	6519	1	117.000	711.280
6516	6519	6520	1	124.000	585.760
6519	6520	6521	1	122.000	669.440
6520	6521	6522	1	180.000	1255.200
6519	6520	6523	1	122.000	669.440
6520	6523	6524	1	180.000	1255.200
6516	6519	6525	1	110.000	585.760
6514	6515	6526	1	124.000	585.760
6515	6526	6527	1	109.500	334.720
6526	6527	6528	1	120.000	585.760
6527	6528	6529	1	120.000	527.184
6528	6529	6530	1	120.000	527.184
6529	6530	6531	1	120.000	527.184
6526	6527	6532	1	120.000	585.760
6515	6526	6533	1	111.100	527.184
6526	6533	6534	1	109.500	418.400
6526	6533	6535	1	109.500	418.400
6526	6533	6536	1	109.500	418.400
6510	6511	6537	1	124.000	585.760
6511	6537	6538	1	111.100	527.184
6537	6538	6539	1	112.700	488.273
6537	6538	6540	1	112.700	488.273
6508	6509	6541	1	124.000	585.760
6505	6506	6542	1	120.000	527.184
6486	6503	6543	1	120.000	585.760
6486	6485	6544	1	109.500	292.880
6486	6485	6545	1	109.500	292.880
6486	6485	6546	1	109.500	292.880
6486	6487	6547	1	109.500	292.880
6486	6487	6548	1	109.500	292.880
6487	6488	6549	1	110.700	313.800
6487	6488	6550	1	110.700	313.800
6490	6491	6551	1	120.000	292.880
6491	6492	6552	1	120.000	292.880
6494	6495	6553	1	120.000	292.880
6495	6496	6554	1	120.000	292.880
6497	6498	6555	1	109.5	0.0
6497	6499	6556	1	120.000	292.880
6494	6500	6557	1	120.000	292.880
6493	6501	6558	1	120.000	292.880
6490	6502	6559	1	120.000	292.880
6503	6504	6560	1	120.000	292.880
6504	6505	6561	1	120.000	292.880
6506	6507	6562	1	123.300	292.880
6507	6508	6563	1	120.000	292.880
6509	6510	6564	1	122.260	502.080
6511	6512	6565	1	120.000	292.880
6512	6513	6566	1	120.000	292.880
6513	6514	6567	1	120.000	292.880
6527	6528	6568	1	120.000	292.880
6528	6529	6569	1	120.000	292.880
6529	6530	6570	1	120.000	292.880
6530	6531	6571	1	120.000	292.880
6527	6532	6572	1	120.000	292.880
6511	6537	6573	1	109.500	292.880
6511	6537	6574	1	109.500	292.880
6538	6539	6575	1	110.700	313.800
6538	6539	6576	1	110.700	313.800
6538	6539	6577	1	110.700	313.800
6538	6540	6578	1	110.700	313.800
6538	6540	6579	1	110.700	313.800
6538	6540	6580	1	110.700	313.800
6509	6541	6581	1	109.500	292.880
6509	6541	6582	1	109.500	292.880
6506	6542	6583	1	120.000	292.880
6503	6543	6584	1	120.000	292.880
6502	6501	6558	1	120.000	292.880
6506	6542	6543	1	120.000	527.184
6491	6490	6502	1	120.000	527.184
6538	6537	6574	1	110.700	313.800
6505	6504	6560	1	120.000	292.880
6542	6543	6584	1	120.000	292.880
6503	6543	6542	1	120.000	527.184
6530	6531	6532	1	120.000	527.184
6545	6485	6546	1	107.800	276.144
6498	6497	6499	1	109.5	0.0
6510	6509	6541	1	124.000	585.760
6538	6541	6581	1	110.700	313.800
6496	6495	6553	1	120.000	292.880
6532	6531	6571	1	120.000	292.880
6579	6540	6580	1	107.800	276.144
6521	6520	6523	1	118.760	505.678
6489	6488	6550	1	109.500	292.880
6489	6488	6549	1	109.500	292.880
6540	6538	6541	1	112.700	488.273
6581	6541	6582	1	107.800	276.144
6527	6532	6531	1	120.000	527.184
6517	6516	6519	1	122.000	669.440
6519	6525	6526	1	111.000	627.600
6508	6507	6562	1	120.000	292.880
6501	6502	6559	1	120.000	292.880
6493	6501	6502	1	120.000	527.184
6530	6529	6569	1	120.000	292.880
6494	6493	6501	1	120.000	527.184
6544	6485	6546	1	107.800	276.144
6513	6512	6565	1	120.000	292.880
6494	6500	6499	1	120.000	527.184
6528	6527	6532	1	120.000	527.184
6520	6519	6525	1	120.000	585.760
6500	6499	6556	1	120.000	292.880
6506	6505	6561	1	120.000	292.880
6534	6533	6536	1	109.100	644.336
6525	6526	6533	1	109.500	418.400
6543	6542	6583	1	120.000	292.880
6576	6539	6577	1	107.800	276.144
6490	6502	6501	1	120.000	527.184
6495	6494	6500	1	120.000	527.184
6538	6537	6573	1	110.700	313.800
6527	6526	6533	1	114.000	527.184
6529	6528	6568	1	120.000	292.880
6525	6526	6527	1	109.500	418.400
6531	6532	6572	1	120.000	292.880
6573	6537	6574	1	107.800	276.144
6492	6491	6551	1	120.000	292.880
6575	6539	6577	1	107.800	276.144
6488	6487	6548	1	110.700	313.800
6512	6511	6537	1	124.000	585.760
6534	6533	6535	1	109.100	644.336
6488	6487	6547	1	110.700	313.800
6575	6539	6576	1	107.800	276.144
6507	6506	6542	1	124.000	585.760
6516	6515	6526	1	124.000	585.760
6504	6503	6543	1	120.000	527.184
6539	6538	6540	1	112.700	488.273
6499	6500	6557	1	120.000	292.880
6515	6526	6525	1	109.500	418.400
6537	6538	6541	1	112.700	488.273
6509	6541	6538	1	111.100	527.184
6549	6488	6550	1	107.800	276.144
6535	6533	6536	1	109.100	644.336
6544	6485	6545	1	107.800	276.144
6497	6496	6554	1	120.000	292.880
6514	6513	6566	1	120.000	292.880
6578	6540	6580	1	107.800	276.144
6547	6487	6548	1	107.800	276.144
6487	6486	6503	1	116.000	418.400
6539	6538	6541	1	112.700	488.273
6511	6510	6564	1	122.260	502.080
6493	6492	6552	1	120.000	292.880
6538	6541	6582	1	110.700	313.800
6578	6540	6579	1	107.800	276.144
6509	6508	6563	1	120.000	292.880
6515	6514	6567	1	123.300	292.880
6531	6530	6570	1	120.000	292.880
6497	6499	6500	1	120.000	527.184
6585	6586	6587	1	107.200	433.462
6586	6587	6588	1	109.470	470.282
6587	6588	6589	1	109.500	418.400
6588	6589	6590	1	111.000	627.600
6589	6590	6591	1	120.000	585.760
6590	6591	6592	1	120.000	527.184
6591	6592	6593	1	120.000	527.184
6592	6593	6594	1	120.000	527.184
6593	6594	6595	1	120.000	527.184
6594	6595	6596	1	120.000	527.184
6595	6596	6597	1	120.000	527.184
6596	6597	6598	1	109.5	0.0
6596	6597	6599	1	120.000	527.184
6593	6594	6600	1	120.000	527.184
6592	6593	6601	1	120.000	527.184
6589	6590	6602	1	120.000	585.760
6585	6586	6603	1	116.000	418.400
6586	6603	6604	1	120.000	585.760
6603	6604	6605	1	120.000	527.184
6604	6605	6606	1	120.000	527.184
6605	6606	6607	1	124.000	585.760
6606	6607	6608	1	117.000	711.280
6607	6608	6609	1	124.000	585.760
6608	6609	6610	1	124.000	585.760
6609	6610	6611	1	124.000	585.760
6610	6611	6612	1	124.000	585.760
6611	6612	6613	1	124.000	585.760
6612	6613	6614	1	124.000	585.760
6613	6614	6615	1	117.000	711.280
6614	6615	6616	1	118.760	505.678
6615	6616	6617	1	124.000	585.760
6616	6617	6618	1	180.000	1255.200
6615	6616	6619	1	117.000	711.280
6616	6619	6620	1	124.000	585.760
6619	6620	6621	1	122.000	669.440
6620	6621	6622	1	180.000	1255.200
6619	6620	6623	1	122.000	669.440
6620	6623	6624	1	180.000	1255.200
6616	6619	6625	1	110.000	585.760
6614	6615	6626	1	124.000	585.760
6615	6626	6627	1	109.500	334.720
6626	6627	6628	1	120.000	585.760
6627	6628	6629	1	120.000	527.184
6628	6629	6630	1	120.000	527.184
6629	6630	6631	1	120.000	527.184
6626	6627	6632	1	120.000	585.760
6615	6626	6633	1	111.100	527.184
6626	6633	6634	1	109.500	418.400
6626	6633	6635	1	109.500	418.400
6626	6633	6636	1	109.500	418.400
6610	6611	6637	1	124.000	585.760
6611	6637	6638	1	111.100	527.184
6637	6638	6639	1	112.700	488.273
6637	6638	6640	1	112.700	488.273
6608	6609	6641	1	124.000	585.760
6605	6606	6642	1	120.000	527.184
6586	6603	6643	1	120.000	585.760
6586	6585	6644	1	109.500	292.880
6586	6585	6645	1	109.500	292.880
6586	6585	6646	1	109.500	292.880
6586	6587	6647	1	109.500	292.880
6586	6587	6648	1	109.500	292.880
6587	6588	6649	1	110.700	313.800
6587	6588	6650	1	110.700	313.800
6590	6591	6651	1	120.000	292.880
6591	6592	6652	1	120.000	292.880
6594	6595	6653	1	120.000	292.880
6595	6596	6654	1	120.000	292.880
6597	6598	6655	1	109.5	0.0
6597	6599	6656	1	120.000	292.880
6594	6600	6657	1	120.000	292.880
6593	6601	6658	1	120.000	292.880
6590	6602	6659	1	120.000	292.880
6603	6604	6660	1	120.000	292.880
6604	6605	6661	1	120.000	292.880
6606	6607	6662	1	123.300	292.880
6607	6608	6663	1	120.000	292.880
6609	6610	6664	1	122.260	502.080
6611	6612	6665	1	120.000	292.880
6612	6613	6666	1	120.000	292.880
6613	6614	6667	1	120.000	292.880
6627	6628	6668	1	120.000	292.880
6628	6629	6669	1	120.000	292.880
6629	6630	6670	1	120.000	292.880
6630	6631	6671	1	120.000	292.880
6627	6632	6672	1	120.000	292.880
6611	6637	6673	1	109.500	292.880
6611	6637	6674	1	109.500	292.880
6638	6639	6675	1	110.700	313.800
6638	6639	6676	1	110.700	313.800
6638	6639	6677	1	110.700	313.800
6638	6640	6678	1	110.700	313.800
6638	6640	6679	1	110.700	313.800
6638	6640	6680	1	110.700	313.800
6609	6641	6681	1	109.500	292.880
6609	6641	6682	1	109.500	292.880
6606	6642	6683	1	120.000	292.880
6603	6643	6684	1	120.000	292.880
6602	6601	6658	1	120.000	292.880
6606	6642	6643	1	120.000	527.184
6591	6590	6602	1	120.000	527.184
6638	6637	6674	1	110.700	313.800
6605	6604	6660	1	120.000	292.880
6642	6643	6684	1	120.000	292.880
6603	6643	6642	1	120.000	527.184
6630	6631	6632	1	120.000	527.184
6645	6585	6646	1	107.800	276.144
6598	6597	6599	1	109.5	0.0
6610	6609	6641	1	124.000	585.760
6638	6641	6681	1	110.700	313.800
6596	6595	6653	1	120.000	292.880
6632	6631	6671	1	120.000	292.880
6679	6640	6680	1	107.800	276.144
6621	6620	6623	1	118.760	505.678
6589	6588	6650	1	109.500	292.880
6589	6588	6649	1	109.500	292.880
6640	6638	6641	1	112.700	488.273
6681	6641	6682	1	107.800	276.144
6627	6632	6631	1	120.000	527.184
6617	6616	6619	1	122.000	669.440
6619	6625	6626	1	111.000	627.600
6608	6607	6662	1	120.000	292.880
6601	6602	6659	1	120.000	292.880
6593	6601	6602	1	120.000	527.184
6630	6629	6669	1	120.000	292.880
6594	6593	6601	1	120.000	527.184
6644	6585	6646	1	107.800	276.144
6613	6612	6665	1	120.000	292.880
6594	6600	6599	1	120.000	527.184
6628	6627	6632	1	120.000	527.184
6620	6619	6625	1	120.000	585.760
6600	6599	6656	1	120.000	292.880
6606	6605	6661	1	120.000	292.880
6634	6633	6636	1	109.100	644.336
6625	6626	6633	1	109.500	418.400
6643	6642	6683	1	120.000	292.880
6676	6639	6677	1	107.800	276.144
6590	6602	6601	1	120.000	527.184
6595	6594	6600	1	120.000	527.184
6638	6637	6673	1	110.700	313.800
6627	6626	6633	1	114.000	527.184
6629	6628	6668	1	120.000	292.880
6625	6626	6627	1	109.500	418.400
6631	6632	6672	1	120.000	292.880
6673	6637	6674	1	107.800	276.144
6592	6591	6651	1	120.000	292.880
6675	6639	6677	1	107.800	276.144
6588	6587	6648	1	110.700	313.800
6612	6611	6637	1	124.000	585.760
6634	6633	6635	1	109.100	644.336
6588	6587	6647	1	110.700	313.800
6675	6639	6676	1	107.800	276.144
6607	6606	6642	1	124.000	585.760
6616	6615	6626	1	124.000	585.760
6604	6603	6643	1	120.000	527.184
6639	6638	6640	1	112.700	488.273
6599	6600	6657	1	120.000	292.880
6615	6626	6625	1	109.500	418.400
6637	6638	6641	1	112.700	488.273
6609	6641	6638	1	111.100	527.184
6649	6588	6650	1	107.800	276.144
6635	6633	6636	1	109.100	644.336
6644	6585	6645	1	107.800	276.144
6597	6596	6654	1	120.000	292.880
6614	6613	6666	1	120.000	292.880
6678	6640	6680	1	107.800	276.144
6647	6587	6648	1	107.800	276.144
6587	6586	6603	1	116.000	418.400
6639	6638	6641	1	112.700	488.273
6611	6610	6664	1	122.260	502.080
6593	6592	6652	1	120.000	292.880
6638	6641	6682	1	110.700	313.800
6678	6640	6679	1	107.800	276.144
6609	6608	6663	1	120.000	292.880
6615	6614	6667	1	123.300	292.880
6631	6630	6670	1	120.000	292.880
6597	6599	6600	1	120.000	527.184
6685	6686	6687	1	107.200	433.462
6686	6687	6688	1	109.470	470.282
6687	6688	6689	1	109.500	418.400
6688	6689	6690	1	111.000	627.600
6689	6690	6691	1	120.000	585.760
6690	6691	6692	1	120.000	527.184
6691	6692	6693	1	120.000	527.184
6692	6693	6694	1	120.000	527.184
6693	6694	6695	1	120.000	527.184
6694	6695	6696	1	120.000	527.184
6695	6696	6697	1	120.000	527.184
6696	6697	6698	1	109.5	0.0
6696	6697	6699	1	120.000	527.184
6693	6694	6700	1	120.000	527.184
6692	6693	6701	1	120.000	527.184
6689	6690	6702	1	120.000	585.760
6685	6686	6703	1	116.000	418.400
6686	6703	6704	1	120.000	585.760
6703	6704	6705	1	120.000	527.184
6704	6705	6706	1	120.000	527.184
6705	6706	6707	1	124.000	585.760
6706	6707	6708	1	117.000	711.280
6707	6708	6709	1	124.000	585.760
6708	6709	6710	1	124.000	585.760
6709	6710	6711	1	124.000	585.760
6710	6711	6712	1	124.000	585.760
6711	6712	6713	1	124.000	585.760
6712	6713	6714	1	124.000	585.760
6713	6714	6715	1	117.000	711.280
6714	6715	6716	1	118.760	505.678
6715	6716	6717	1	124.000	585.760
6716	6717	6718	1	180.000	1255.200
6715	6716	6719	1	117.000	711.280
6716	6719	6720	1	124.000	585.760
6719	6720	6721	1	122.000	669.440
6720	6721	6722	1	180.000	1255.200
6719	6720	6723	1	122.000	669.440
6720	6723	6724	1	180.000	1255.200
6716	6719	6725	1	110.000	585.760
6714	6715	6726	1	124.000	585.760
6715	6726	6727	1	109.500	334.720
6726	6727	6728	1	120.000	585.760
6727	6728	6729	1	120.000	527.184
6728	6729	6730	1	120.000	527.184
6729	6730	6731	1	120.000	527.184
6726	6727	6732	1	120.000	585.760
6715	6726	6733	1	111.100	527.184
6726	6733	6734	1	109.500	418.400
6726	6733	6735	1	109.500	418.400
6726	6733	6736	1	109.500	418.400
6710	6711	6737	1	124.000	585.760
6711	6737	6738	1	111.100	527.184
6737	6738	6739	1	112.700	488.273
6737	6738	6740	1	112.700	488.273
6708	6709	6741	1	124.000	585.760
6705	6706	6742	1	120.000	527.184
6686	6703	6743	1	120.000	585.760
6686	6685	6744	1	109.500	292.880
6686	6685	6745	1	109.500	292.880
6686	6685	6746	1	109.500	292.880
6686	6687	6747	1	109.500	292.880
6686	6687	6748	1	109.500	292.880
6687	6688	6749	1	110.700	313.800
6687	6688	6750	1	110.700	313.800
6690	6691	6751	1	120.000	292.880
6691	6692	6752	1	120.000	292.880
6694	6695	6753	1	120.000	292.880
6695	6696	6754	1	120.000	292.880
6697	6698	6755	1	109.5	0.0
6697	6699	6756	1	120.000	292.880
6694	6700	6757	1	120.000	292.880
6693	6701	6758	1	120.000	292.880
6690	6702	6759	1	120.000	292.880
6703	6704	6760	1	120.000	292.880
6704	6705	6761	1	120.000	292.880
6706	6707	6762	1	123.300	292.880
6707	6708	6763	1	120.000	292.880
6709	6710	6764	1	122.260	502.080
6711	6712	6765	1	120.000	292.880
6712	6713	6766	1	120.000	292.880
6713	6714	6767	1	120.000	292.880
6727	6728	6768	1	120.000	292.880
6728	6729	6769	1	120.000	292.880
6729	6730	6770	1	120.000	292.880
6730	6731	6771	1	120.000	292.880
6727	6732	6772	1	120.000	292.880
6711	6737	6773	1	109.500	292.880
6711	6737	6774	1	109.500	292.880
6738	6739	6775	1	110.700	313.800
6738	6739	6776	1	110.700	313.800
6738	6739	6777	1	110.700	313.800
6738	6740	6778	1	110.700	313.800
6738	6740	6779	1	110.700	313.800
6738	6740	6780	1	110.700	313.800
6709	6741	6781	1	109.500	292.880
6709	6741	6782	1	109.500	292.880
6706	6742	6783	1	120.000	292.880
6703	6743	6784	1	120.000	292.880
6702	6701	6758	1	120.000	292.880
6706	6742	6743	1	120.000	527.184
6691	6690	6702	1	120.000	527.184
6738	6737	6774	1	110.700	313.800
6705	6704	6760	1	120.000	292.880
6742	6743	6784	1	120.000	292.880
6703	6743	6742	1	120.000	527.184
6730	6731	6732	1	120.000	527.184
6745	6685	6746	1	107.800	276.144
6698	6697	6699	1	109.5	0.0
6710	6709	6741	1	124.000	585.760
6738	6741	6781	1	110.700	313.800
6696	6695	6753	1	120.000	292.880
6732	6731	6771	1	120.000	292.880
6779	6740	6780	1	107.800	276.144
6721	6720	6723	1	118.760	505.678
6689	6688	6750	1	109.500	292.880
6689	6688	6749	1	109.500	292.880
6740	6738	6741	1	112.700	488.273
6781	6741	6782	1	107.800	276.144
6727	6732	6731	1	120.000	527.184
6717	6716	6719	1	122.000	669.440
6719	6725	6726	1	111.000	627.600
6708	6707	6762	1	120.000	292.880
6701	6702	6759	1	120.000	292.880
6693	6701	6702	1	120.000	527.184
6730	6729	6769	1	120.000	292.880
6694	6693	6701	1	120.000	527.184
6744	6685	6746	1	107.800	276.144
6713	6712	6765	1	120.000	292.880
6694	6700	6699	1	120.000	527.184
6728	6727	6732	1	120.000	527.184
6720	6719	6725	1	120.000	585.760
6700	6699	6756	1	120.000	292.880
6706	6705	6761	1	120.000	292.880
6734	6733	6736	1	109.100	644.336
6725	6726	6733	1	109.500	418.400
6743	6742	6783	1	120.000	292.880
6776	6739	6777	1	107.800	276.144
6690	6702	6701	1	120.000	527.184
6695	6694	6700	1	120.000	527.184
6738	6737	6773	1	110.700	313.800
6727	6726	6733	1	114.000	527.184
6729	6728	6768	1	120.000	292.880
6725	6726	6727	1	109.500	418.400
6731	6732	6772	1	120.000	292.880
6773	6737	6774	1	107.800	276.144
6692	6691	6751	1	120.000	292.880
6775	6739	6777	1	107.800	276.144
6688	6687	6748	1	110.700	313.800
6712	6711	6737	1	124.000	585.760
6734	6733	6735	1	109.100	644.336
6688	6687	6747	1	110.700	313.800
6775	6739	6776	1	107.800	276.144
6707	6706	6742	1	124.000	585.760
6716	6715	6726	1	124.000	585.760
6704	6703	6743	1	120.000	527.184
6739	6738	6740	1	112.700	488.273
6699	6700	6757	1	120.000	292.880
6715	6726	6725	1	109.500	418.400
6737	6738	6741	1	112.700	488.273
6709	6741	6738	1	111.100	527.184
6749	6688	6750	1	107.800	276.144
6735	6733	6736	1	109.100	644.336
6744	6685	6745	1	107.800	276.144
6697	6696	6754	1	120.000	292.880
6714	6713	6766	1	120.000	292.880
6778	6740	6780	1	107.800	276.144
6747	6687	6748	1	107.800	276.144
6687	6686	6703	1	116.000	418.400
6739	6738	6741	1	112.700	488.273
6711	6710	6764	1	122.260	502.080
6693	6692	6752	1	120.000	292.880
6738	6741	6782	1	110.700	313.800
6778	6740	6779	1	107.800	276.144
6709	6708	6763	1	120.000	292.880
6715	6714	6767	1	123.300	292.880
6731	6730	6770	1	120.000	292.880
6697	6699	6700	1	120.000	527.184
6785	6786	6787	1	107.200	433.462
6786	6787	6788	1	109.470	470.282
6787	6788	6789	1	109.500	418.400
6788	6789	6790	1	111.000	627.600
6789	6790	6791	1	120.000	585.760
6790	6791	6792	1	120.000	527.184
6791	6792	6793	1	120.000	527.184
6792	6793	6794	1	120.000	527.184
6793	6794	6795	1	120.000	527.184
6794	6795	6796	1	120.000	527.184
6795	6796	6797	1	120.000	527.184
6796	6797	6798	1	109.5	0.0
6796	6797	6799	1	120.000	527.184
6793	6794	6800	1	120.000	527.184
6792	6793	6801	1	120.000	527.184
6789	6790	6802	1	120.000	585.760
6785	6786	6803	1	116.000	418.400
6786	6803	6804	1	120.000	585.760
6803	6804	6805	1	120.000	527.184
6804	6805	6806	1	120.000	527.184
6805	6806	6807	1	124.000	585.760
6806	6807	6808	1	117.000	711.280
6807	6808	6809	1	124.000	585.760
6808	6809	6810	1	124.000	585.760
6809	6810	6811	1	124.000	585.760
6810	6811	6812	1	124.000	585.760
6811	6812	6813	1	124.000	585.760
6812	6813	6814	1	124.000	585.760
6813	6814	6815	1	117.000	711.280
6814	6815	6816	1	118.760	505.678
6815	6816	6817	1	124.000	585.760
6816	6817	6818	1	180.000	1255.200
6815	6816	6819	1	117.000	711.280
6816	6819	6820	1	124.000	585.760
6819	6820	6821	1	122.000	669.440
6820	6821	6822	1	180.000	1255.200
6819	6820	6823	1	122.000	669.440
6820	6823	6824	1	180.000	1255.200
6816	6819	6825	1	110.000	585.760
6814	6815	6826	1	124.000	585.760
6815	6826	6827	1	109.500	334.720
6826	6827	6828	1	120.000	585.760
6827	6828	6829	1	120.000	527.184
6828	6829	6830	1	120.000	527.184
6829	6830	6831	1	120.000	527.184
6826	6827	6832	1	120.000	585.760
6815	6826	6833	1	111.100	527.184
6826	6833	6834	1	109.500	418.400
6826	6833	6835	1	109.500	418.400
6826	6833	6836	1	109.500	418.400
6810	6811	6837	1	124.000	585.760
6811	6837	6838	1	111.100	527.184
6837	6838	6839	1	112.700	488.273
6837	6838	6840	1	112.700	488.273
6808	6809	6841	1	124.000	585.760
6805	6806	6842	1	120.000	527.184
6786	6803	6843	1	120.000	585.760
6786	6785	6844	1	109.500	292.880
6786	6785	6845	1	109.500	292.880
6786	6785	6846	1	109.500	292.880
6786	6787	6847	1	109.500	292.880
6786	6787	6848	1	109.500	292.880
6787	6788	6849	1	110.700	313.800
6787	6788	6850	1	110.700	313.800
6790	6791	6851	1	120.000	292.880
6791	6792	6852	1	120.000	292.880
6794	6795	6853	1	120.000	292.880
6795	6796	6854	1	120.000	292.880
6797	6798	6855	1	109.5	0.0
6797	6799	6856	1	120.000	292.880
6794	6800	6857	1	120.000	292.880
6793	6801	6858	1	120.000	292.880
6790	6802	6859	1	120.000	292.880
6803	6804	6860	1	120.000	292.880
6804	6805	6861	1	120.000	292.880
6806	6807	6862	1	123.300	292.880
6807	6808	6863	1	120.000	292.880
6809	6810	6864	1	122.260	502.080
6811	6812	6865	1	120.000	292.880
6812	6813	6866	1	120.000	292.880
6813	6814	6867	1	120.000	292.880
6827	6828	6868	1	120.000	292.880
6828	6829	6869	1	120.000	292.880
6829	6830	6870	1	120.000	292.880
6830	6831	6871	1	120.000	292.880
6827	6832	6872	1	120.000	292.880
6811	6837	6873	1	109.500	292.880
6811	6837	6874	1	109.500	292.880
6838	6839	6875	1	110.700	313.800
6838	6839	6876	1	110.700	313.800
6838	6839	6877	1	110.700	313.800
6838	6840	6878	1	110.700	313.800
6838	6840	6879	1	110.700	313.800
6838	6840	6880	1	110.700	313.800
6809	6841	6881	1	109.500	292.880
6809	6841	6882	1	109.500	292.880
6806	6842	6883	1	120.000	292.880
6803	6843	6884	1	120.000	292.880
6802	6801	6858	1	120.000	292.880
6806	6842	6843	1	120.000	527.184
6791	6790	6802	1	120.000	527.184
6838	6837	6874	1	110.700	313.800
6805	6804	6860	1	120.000	292.880
6842	6843	6884	1	120.000	292.880
6803	6843	6842	1	120.000	527.184
6830	6831	6832	1	120.000	527.184
6845	6785	6846	1	107.800	276.144
6798	6797	6799	1	109.5	0.0
6810	6809	6841	1	124.000	585.760
6838	6841	6881	1	110.700	313.800
6796	6795	6853	1	120.000	292.880
6832	6831	6871	1	120.000	292.880
6879	6840	6880	1	107.800	276.144
6821	6820	6823	1	118.760	505.678
6789	6788	6850	1	109.500	292.880
6789	6788	6849	1	109.500	292.880
6840	6838	6841	1	112.700	488.273
6881	6841	6882	1	107.800	276.144
6827	6832	6831	1	120.000	527.184
6817	6816	6819	1	122.000	669.440
6819	6825	6826	1	111.000	627.600
6808	6807	6862	1	120.000	292.880
6801	6802	6859	1	120.000	292.880
6793	6801	6802	1	120.000	527.184
6830	6829	6869	1	120.000	292.880
6794	6793	6801	1	120.000	527.184
6844	6785	6846	1	107.800	276.144
6813	6812	6865	1	120.000	292.880
6794	6800	6799	1	120.000	527.184
6828	6827	6832	1	120.000	527.184
6820	6819	6825	1	120.000	585.760
6800	6799	6856	1	120.000	292.880
6806	6805	6861	1	120.000	292.880
6834	6833	6836	1	109.100	644.336
6825	6826	6833	1	109.500	418.400
6843	6842	6883	1	120.000	292.880
6876	6839	6877	1	107.800	276.144
6790	6802	6801	1	120.000	527.184
6795	6794	6800	1	120.000	527.184
6838	6837	6873	1	110.700	313.800
6827	6826	6833	1	114.000	527.184
6829	6828	6868	1	120.000	292.880
6825	6826	6827	1	109.500	418.400
6831	6832	6872	1	120.000	292.880
6873	6837	6874	1	107.800	276.144
6792	6791	6851	1	120.000	292.880
6875	6839	6877	1	107.800	276.144
6788	6787	6848	1	110.700	313.800
6812	6811	6837	1	124.000	585.760
6834	6833	6835	1	109.100	644.336
6788	6787	6847	1	110.700	313.800
6875	6839	6876	1	107.800	276.144
6807	6806	6842	1	124.000	585.760
6816	6815	6826	1	124.000	585.760
6804	6803	6843	1	120.000	527.184
6839	6838	6840	1	112.700	488.273
6799	6800	6857	1	120.000	292.880
6815	6826	6825	1	109.500	418.400
6837	6838	6841	1	112.700	488.273
6809	6841	6838	1	111.100	527.184
6849	6788	6850	1	107.800	276.144
6835	6833	6836	1	109.100	644.336
6844	6785	6845	1	107.800	276.144
6797	6796	6854	1	120.000	292.880
6814	6813	6866	1	120.000	292.880
6878	6840	6880	1	107.800	276.144
6847	6787	6848	1	107.800	276.144
6787	6786	6803	1	116.000	418.400
6839	6838	6841	1	112.700	488.273
6811	6810	6864	1	122.260	502.080
6793	6792	6852	1	120.000	292.880
6838	6841	6882	1	110.700	313.800
6878	6840	6879	1	107.800	276.144
6809	6808	6863	1	120.000	292.880
6815	6814	6867	1	123.300	292.880
6831	6830	6870	1	120.000	292.880
6797	6799	6800	1	120.000	527.184
6885	6886	6887	1	107.200	433.462
6886	6887	6888	1	109.470	470.282
6887	6888	6889	1	109.500	418.400
6888	6889	6890	1	111.000	627.600
6889	6890	6891	1	120.000	585.760
6890	6891	6892	1	120.000	527.184
6891	6892	6893	1	120.000	527.184
6892	6893	6894	1	120.000	527.184
6893	6894	6895	1	120.000	527.184
6894	6895	6896	1	120.000	527.184
6895	6896	6897	1	120.000	527.184
6896	6897	6898	1	109.5	0.0
6896	6897	6899	1	120.000	527.184
6893	6894	6900	1	120.000	527.184
6892	6893	6901	1	120.000	527.184
6889	6890	6902	1	120.000	585.760
6885	6886	6903	1	116.000	418.400
6886	6903	6904	1	120.000	585.760
6903	6904	6905	1	120.000	527.184
6904	6905	6906	1	120.000	527.184
6905	6906	6907	1	124.000	585.760
6906	6907	6908	1	117.000	711.280
6907	6908	6909	1	124.000	585.760
6908	6909	6910	1	124.000	585.760
6909	6910	6911	1	124.000	585.760
6910	6911	6912	1	124.000	585.760
6911	6912	6913	1	124.000	585.760
6912	6913	6914	1	124.000	585.760
6913	6914	6915	1	117.000	711.280
6914	6915	6916	1	118.760	505.678
6915	6916	6917	1	124.000	585.760
6916	6917	6918	1	180.000	1255.200
6915	6916	6919	1	117.000	711.280
6916	6919	6920	1	124.000	585.760
6919	6920	6921	1	122.000	669.440
6920	6921	6922	1	180.000	1255.200
6919	6920	6923	1	122.000	669.440
6920	6923	6924	1	180.000	1255.200
6916	6919	6925	1	110.000	585.760
6914	6915	6926	1	124.000	585.760
6915	6926	6927	1	109.500	334.720
6926	6927	6928	1	120.000	585.760
6927	6928	6929	1	120.000	527.184
6928	6929	6930	1	120.000	527.184
6929	6930	6931	1	120.000	527.184
6926	6927	6932	1	120.000	585.760
6915	6926	6933	1	111.100	527.184
6926	6933	6934	1	109.500	418.400
6926	6933	6935	1	109.500	418.400
6926	6933	6936	1	109.500	418.400
6910	6911	6937	1	124.000	585.760
6911	6937	6938	1	111.100	527.184
6937	6938	6939	1	112.700	488.273
6937	6938	6940	1	112.700	488.273
6908	6909	6941	1	124.000	585.760
6905	6906	6942	1	120.000	527.184
6886	6903	6943	1	120.000	585.760
6886	6885	6944	1	109.500	292.880
6886	6885	6945	1	109.500	292.880
6886	6885	6946	1	109.500	292.880
6886	6887	6947	1	109.500	292.880
6886	6887	6948	1	109.500	292.880
6887	6888	6949	1	110.700	313.800
6887	6888	6950	1	110.700	313.800
6890	6891	6951	1	120.000	292.880
6891	6892	6952	1	120.000	292.880
6894	6895	6953	1	120.000	292.880
6895	6896	6954	1	120.000	292.880
6897	6898	6955	1	109.5	0.0
6897	6899	6956	1	120.000	292.880
6894	6900	6957	1	120.000	292.880
6893	6901	6958	1	120.000	292.880
6890	6902	6959	1	120.000	292.880
6903	6904	6960	1	120.000	292.880
6904	6905	6961	1	120.000	292.880
6906	6907	6962	1	123.300	292.880
6907	6908	6963	1	120.000	292.880
6909	6910	6964	1	122.260	502.080
6911	6912	6965	1	120.000	292.880
6912	6913	6966	1	120.000	292.880
6913	6914	6967	1	120.000	292.880
6927	6928	6968	1	120.000	292.880
6928	6929	6969	1	120.000	292.880
6929	6930	6970	1	120.000	292.880
6930	6931	6971	1	120.000	292.880
6927	6932	6972	1	120.000	292.880
6911	6937	6973	1	109.500	292.880
6911	6937	6974	1	109.500	292.880
6938	6939	6975	1	110.700	313.800
6938	6939	6976	1	110.700	313.800
6938	6939	6977	1	110.700	313.800
6938	6940	6978	1	110.700	313.800
6938	6940	6979	1	110.700	313.800
6938	6940	6980	1	110.700	313.800
6909	6941	6981	1	109.500	292.880
6909	6941	6982	1	109.500	292.880
6906	6942	6983	1	120.000	292.880
6903	6943	6984	1	120.000	292.880
6902	6901	6958	1	120.000	292.880
6906	6942	6943	1	120.000	527.184
6891	6890	6902	1	120.000	527.184
6938	6937	6974	1	110.700	313.800
6905	6904	6960	1	120.000	292.880
6942	6943	6984	1	120.000	292.880
6903	6943	6942	1	120.000	527.184
6930	6931	6932	1	120.000	527.184
6945	6885	6946	1	107.800	276.144
6898	6897	6899	1	109.5	0.0
6910	6909	6941	1	124.000	585.760
6938	6941	6981	1	110.700	313.800
6896	6895	6953	1	120.000	292.880
6932	6931	6971	1	120.000	292.880
6979	6940	6980	1	107.800	276.144
6921	6920	6923	1	118.760	505.678
6889	6888	6950	1	109.500	292.880
6889	6888	6949	1	109.500	292.880
6940	6938	6941	1	112.700	488.273
6981	6941	6982	1	107.800	276.144
6927	6932	6931	1	120.000	527.184
6917	6916	6919	1	122.000	669.440
6919	6925	6926	1	111.000	627.600
6908	6907	6962	1	120.000	292.880
6901	6902	6959	1	120.000	292.880
6893	6901	6902	1	120.000	527.184
6930	6929	6969	1	120.000	292.880
6894	6893	6901	1	120.000	527.184
6944	6885	6946	1	107.800	276.144
6913	6912	6965	1	120.000	292.880
6894	6900	6899	1	120.000	527.184
6928	6927	6932	1	120.000	527.184
6920	6919	6925	1	120.000	585.760
6900	6899	6956	1	120.000	292.880
6906	6905	6961	1	120.000	292.880
6934	6933	6936	1	109.100	644.336
6925	6926	6933	1	109.500	418.400
6943	6942	6983	1	120.000	292.880
6976	6939	6977	1	107.800	276.144
6890	6902	6901	1	120.000	527.184
6895	6894	6900	1	120.000	527.184
6938	6937	6973	1	110.700	313.800
6927	6926	6933	1	114.000	527.184
6929	6928	6968	1	120.000	292.880
6925	6926	6927	1	109.500	418.400
6931	6932	6972	1	120.000	292.880
6973	6937	6974	1	107.800	276.144
6892	6891	6951	1	120.000	292.880
6975	6939	6977	1	107.800	276.144
6888	6887	6948	1	110.700	313.800
6912	6911	6937	1	124.000	585.760
6934	6933	6935	1	109.100	644.336
6888	6887	6947	1	110.700	313.800
6975	6939	6976	1	107.800	276.144
6907	6906	6942	1	124.000	585.760
6916	6915	6926	1	124.000	585.760
6904	6903	6943	1	120.000	527.184
6939	6938	6940	1	112.700	488.273
6899	6900	6957	1	120.000	292.880
6915	6926	6925	1	109.500	418.400
6937	6938	6941	1	112.700	488.273
6909	6941	6938	1	111.100	527.184
6949	6888	6950	1	107.800	276.144
6935	6933	6936	1	109.100	644.336
6944	6885	6945	1	107.800	276.144
6897	6896	6954	1	120.000	292.880
6914	6913	6966	1	120.000	292.880
6978	6940	6980	1	107.800	276.144
6947	6887	6948	1	107.800	276.144
6887	6886	6903	1	116.000	418.400
6939	6938	6941	1	112.700	488.273
6911	6910	6964	1	122.260	502.080
6893	6892	6952	1	120.000	292.880
6938	6941	6982	1	110.700	313.800
6978	6940	6979	1	107.800	276.144
6909	6908	6963	1	120.000	292.880
6915	6914	6967	1	123.300	292.880
6931	6930	6970	1	120.000	292.880
6897	6899	6900	1	120.000	527.184
6985	6986	6987	1	107.200	433.462
6986	6987	6988	1	109.470	470.282
6987	6988	6989	1	109.500	418.400
6988	6989	6990	1	111.000	627.600
6989	6990	6991	1	120.000	585.760
6990	6991	6992	1	120.000	527.184
6991	6992	6993	1	120.000	527.184
6992	6993	6994	1	120.000	527.184
6993	6994	6995	1	120.000	527.184
6994	6995	6996	1	120.000	527.184
6995	6996	6997	1	120.000	527.184
6996	6997	6998	1	109.5	0.0
6996	6997	6999	1	120.000	527.184
6993	6994	7000	1	120.000	527.184
6992	6993	7001	1	120.000	527.184
6989	6990	7002	1	120.000	585.760
6985	6986	7003	1	116.000	418.400
6986	7003	7004	1	120.000	585.760
7003	7004	7005	1	120.000	527.184
7004	7005	7006	1	120.000	527.184
7005	7006	7007	1	124.000	585.760
7006	7007	7008	1	117.000	711.280
7007	7008	7009	1	124.000	585.760
7008	7009	7010	1	124.000	585.760
7009	7010	7011	1	124.000	585.760
7010	7011	7012	1	124.000	585.760
7011	7012	7013	1	124.000	585.760
7012	7013	7014	1	124.000	585.760
7013	7014	7015	1	117.000	711.280
7014	7015	7016	1	118.760	505.678
7015	7016	7017	1	124.000	585.760
7016	7017	7018	1	180.000	1255.200
7015	7016	7019	1	117.000	711.280
7016	7019	7020	1	124.000	585.760
7019	7020	7021	1	122.000	669.440
7020	7021	7022	1	180.000	1255.200
7019	7020	7023	1	122.000	669.440
7020	7023	7024	1	180.000	1255.200
7016	7019	7025	1	110.000	585.760
7014	7015	7026	1	124.000	585.760
7015	7026	7027	1	109.500	334.720
7026	7027	7028	1	120.000	585.760
7027	7028	7029	1	120.000	527.184
7028	7029	7030	1	120.000	527.184
7029	7030	7031	1	120.000	527.184
7026	7027	7032	1	120.000	585.760
7015	7026	7033	1	111.100	527.184
7026	7033	7034	1	109.500	418.400
7026	7033	7035	1	109.500	418.400
7026	7033	7036	1	109.500	418.400
7010	7011	7037	1	124.000	585.760
7011	7037	7038	1	111.100	527.184
7037	7038	7039	1	112.700	488.273
7037	7038	7040	1	112.700	488.273
7008	7009	7041	1	124.000	585.760
7005	7006	7042	1	120.000	527.184
6986	7003	7043	1	120.000	585.760
6986	6985	7044	1	109.500	292.880
6986	6985	7045	1	109.500	292.880
6986	6985	7046	1	109.500	292.880
6986	6987	7047	1	109.500	292.880
6986	6987	7048	1	109.500	292.880
6987	6988	7049	1	110.700	313.800
6987	6988	7050	1	110.700	313.800
6990	6991	7051	1	120.000	292.880
6991	6992	7052	1	120.000	292.880
6994	6995	7053	1	120.000	292.880
6995	6996	7054	1	120.000	292.880
6997	6998	7055	1	109.5	0.0
6997	6999	7056	1	120.000	292.880
6994	7000	7057	1	120.000	292.880
6993	7001	7058	1	120.000	292.880
6990	7002	7059	1	120.000	292.880
7003	7004	7060	1	120.000	292.880
7004	7005	7061	1	120.000	292.880
7006	7007	7062	1	123.300	292.880
7007	7008	7063	1	120.000	292.880
7009	7010	7064	1	122.260	502.080
7011	7012	7065	1	120.000	292.880
7012	7013	7066	1	120.000	292.880
7013	7014	7067	1	120.000	292.880
7027	7028	7068	1	120.000	292.880
7028	7029	7069	1	120.000	292.880
7029	7030	7070	1	120.000	292.880
7030	7031	7071	1	120.000	292.880
7027	7032	7072	1	120.000	292.880
7011	7037	7073	1	109.500	292.880
7011	7037	7074	1	109.500	292.880
7038	7039	7075	1	110.700	313.800
7038	7039	7076	1	110.700	313.800
7038	7039	7077	1	110.700	313.800
7038	7040	7078	1	110.700	313.800
7038	7040	7079	1	110.700	313.800
7038	7040	7080	1	110.700	313.800
7009	7041	7081	1	109.500	292.880
7009	7041	7082	1	109.500	292.880
7006	7042	7083	1	120.000	292.880
7003	7043	7084	1	120.000	292.880
7002	7001	7058	1	120.000	292.880
7006	7042	7043	1	120.000	527.184
6991	6990	7002	1	120.000	527.184
7038	7037	7074	1	110.700	313.800
7005	7004	7060	1	120.000	292.880
7042	7043	7084	1	120.000	292.880
7003	7043	7042	1	120.000	527.184
7030	7031	7032	1	120.000	527.184
7045	6985	7046	1	107.800	276.144
6998	6997	6999	1	109.5	0.0
7010	7009	7041	1	124.000	585.760
7038	7041	7081	1	110.700	313.800
6996	6995	7053	1	120.000	292.880
7032	7031	7071	1	120.000	292.880
7079	7040	7080	1	107.800	276.144
7021	7020	7023	1	118.760	505.678
6989	6988	7050	1	109.500	292.880
6989	6988	7049	1	109.500	292.880
7040	7038	7041	1	112.700	488.273
7081	7041	7082	1	107.800	276.144
7027	7032	7031	1	120.000	527.184
7017	7016	7019	1	122.000	669.440
7019	7025	7026	1	111.000	627.600
7008	7007	7062	1	120.000	292.880
7001	7002	7059	1	120.000	292.880
6993	7001	7002	1	120.000	527.184
7030	7029	7069	1	120.000	292.880
6994	6993	7001	1	120.000	527.184
7044	6985	7046	1	107.800	276.144
7013	7012	7065	1	120.000	292.880
6994	7000	6999	1	120.000	527.184
7028	7027	7032	1	120.000	527.184
7020	7019	7025	1	120.000	585.760
7000	6999	7056	1	120.000	292.880
7006	7005	7061	1	120.000	292.880
7034	7033	7036	1	109.100	644.336
7025	7026	7033	1	109.500	418.400
7043	7042	7083	1	120.000	292.880
7076	7039	7077	1	107.800	276.144
6990	7002	7001	1	120.000	527.184
6995	6994	7000	1	120.000	527.184
7038	7037	7073	1	110.700	313.800
7027	7026	7033	1	114.000	527.184
7029	7028	7068	1	120.000	292.880
7025	7026	7027	1	109.500	418.400
7031	7032	7072	1	120.000	292.880
7073	7037	7074	1	107.800	276.144
6992	6991	7051	1	120.000	292.880
7075	7039	7077	1	107.800	276.144
6988	6987	7048	1	110.700	313.800
7012	7011	7037	1	124.000	585.760
7034	7033	7035	1	109.100	644.336
6988	6987	7047	1	110.700	313.800
7075	7039	7076	1	107.800	276.144
7007	7006	7042	1	124.000	585.760
7016	7015	7026	1	124.000	585.760
7004	7003	7043	1	120.000	527.184
7039	7038	7040	1	112.700	488.273
6999	7000	7057	1	120.000	292.880
7015	7026	7025	1	109.500	418.400
7037	7038	7041	1	112.700	488.273
7009	7041	7038	1	111.100	527.184
7049	6988	7050	1	107.800	276.144
7035	7033	7036	1	109.100	644.336
7044	6985	7045	1	107.800	276.144
6997	6996	7054	1	120.000	292.880
7014	7013	7066	1	120.000	292.880
7078	7040	7080	1	107.800	276.144
7047	6987	7048	1	107.800	276.144
6987	6986	7003	1	116.000	418.400
7039	7038	7041	1	112.700	488.273
7011	7010	7064	1	122.260	502.080
6993	6992	7052	1	120.000	292.880
7038	7041	7082	1	110.700	313.800
7078	7040	7079	1	107.800	276.144
7009	7008	7063	1	120.000	292.880
7015	7014	7067	1	123.300	292.880
7031	7030	7070	1	120.000	292.880
6997	6999	7000	1	120.000	527.184
7085	7086	7087	1	107.200	433.462
7086	7087	7088	1	109.470	470.282
7087	7088	7089	1	109.500	418.400
7088	7089	7090	1	111.000	627.600
7089	7090	7091	1	120.000	585.760
7090	7091	7092	1	120.000	527.184
7091	7092	7093	1	120.000	527.184
7092	7093	7094	1	120.000	527.184
7093	7094	7095	1	120.000	527.184
7094	7095	7096	1	120.000	527.184
7095	7096	7097	1	120.000	527.184
7096	7097	7098	1	109.5	0.0
7096	7097	7099	1	120.000	527.184
7093	7094	7100	1	120.000	527.184
7092	7093	7101	1	120.000	527.184
7089	7090	7102	1	120.000	585.760
7085	7086	7103	1	116.000	418.400
7086	7103	7104	1	120.000	585.760
7103	7104	7105	1	120.000	527.184
7104	7105	7106	1	120.000	527.184
7105	7106	7107	1	124.000	585.760
7106	7107	7108	1	117.000	711.280
7107	7108	7109	1	124.000	585.760
7108	7109	7110	1	124.000	585.760
7109	7110	7111	1	124.000	585.760
7110	7111	7112	1	124.000	585.760
7111	7112	7113	1	124.000	585.760
7112	7113	7114	1	124.000	585.760
7113	7114	7115	1	117.000	711.280
7114	7115	7116	1	118.760	505.678
7115	7116	7117	1	124.000	585.760
7116	7117	7118	1	180.000	1255.200
7115	7116	7119	1	117.000	711.280
7116	7119	7120	1	124.000	585.760
7119	7120	7121	1	122.000	669.440
7120	7121	7122	1	180.000	1255.200
7119	7120	7123	1	122.000	669.440
7120	7123	7124	1	180.000	1255.200
7116	7119	7125	1	110.000	585.760
7114	7115	7126	1	124.000	585.760
7115	7126	7127	1	109.500	334.720
7126	7127	7128	1	120.000	585.760
7127	7128	7129	1	120.000	527.184
7128	7129	7130	1	120.000	527.184
7129	7130	7131	1	120.000	527.184
7126	7127	7132	1	120.000	585.760
7115	7126	7133	1	111.100	527.184
7126	7133	7134	1	109.500	418.400
7126	7133	7135	1	109.500	418.400
7126	7133	7136	1	109.500	418.400
7110	7111	7137	1	124.000	585.760
7111	7137	7138	1	111.100	527.184
7137	7138	7139	1	112.700	488.273
7137	7138	7140	1	112.700	488.273
7108	7109	7141	1	124.000	585.760
7105	7106	7142	1	120.000	527.184
7086	7103	7143	1	120.000	585.760
7086	7085	7144	1	109.500	292.880
7086	7085	7145	1	109.500	292.880
7086	7085	7146	1	109.500	292.880
7086	7087	7147	1	109.500	292.880
7086	7087	7148	1	109.500	292.880
7087	7088	7149	1	110.700	313.800
7087	7088	7150	1	110.700	313.800
7090	7091	7151	1	120.000	292.880
7091	7092	7152	1	120.000	292.880
7094	7095	7153	1	120.000	292.880
7095	7096	7154	1	120.000	292.880
7097	7098	7155	1	109.5	0.0
7097	7099	7156	1	120.000	292.880
7094	7100	7157	1	120.000	292.880
7093	7101	7158	1	120.000	292.880
7090	7102	7159	1	120.000	292.880
7103	7104	7160	1	120.000	292.880
7104	7105	7161	1	120.000	292.880
7106	7107	7162	1	123.300	292.880
7107	7108	7163	1	120.000	292.880
7109	7110	7164	1	122.260	502.080
7111	7112	7165	1	120.000	292.880
7112	7113	7166	1	120.000	292.880
7113	7114	7167	1	120.000	292.880
7127	7128	7168	1	120.000	292.880
7128	7129	7169	1	120.000	292.880
7129	7130	7170	1	120.000	292.880
7130	7131	7171	1	120.000	292.880
7127	7132	7172	1	120.000	292.880
7111	7137	7173	1	109.500	292.880
7111	7137	7174	1	109.500	292.880
7138	7139	7175	1	110.700	313.800
7138	7139	7176	1	110.700	313.800
7138	7139	7177	1	110.700	313.800
7138	7140	7178	1	110.700	313.800
7138	7140	7179	1	110.700	313.800
7138	7140	7180	1	110.700	313.800
7109	7141	7181	1	109.500	292.880
7109	7141	7182	1	109.500	292.880
7106	7142	7183	1	120.000	292.880
7103	7143	7184	1	120.000	292.880
7102	7101	7158	1	120.000	292.880
7106	7142	7143	1	120.000	527.184
7091	7090	7102	1	120.000	527.184
7138	7137	7174	1	110.700	313.800
7105	7104	7160	1	120.000	292.880
7142	7143	7184	1	120.000	292.880
7103	7143	7142	1	120.000	527.184
7130	7131	7132	1	120.000	527.184
7145	7085	7146	1	107.800	276.144
7098	7097	7099	1	109.5	0.0
7110	7109	7141	1	124.000	585.760
7138	7141	7181	1	110.700	313.800
7096	7095	7153	1	120.000	292.880
7132	7131	7171	1	120.000	292.880
7179	7140	7180	1	107.800	276.144
7121	7120	7123	1	118.760	505.678
7089	7088	7150	1	109.500	292.880
7089	7088	7149	1	109.500	292.880
7140	7138	7141	1	112.700	488.273
7181	7141	7182	1	107.800	276.144
7127	7132	7131	1	120.000	527.184
7117	7116	7119	1	122.000	669.440
7119	7125	7126	1	111.000	627.600
7108	7107	7162	1	120.000	292.880
7101	7102	7159	1	120.000	292.880
7093	7101	7102	1	120.000	527.184
7130	7129	7169	1	120.000	292.880
7094	7093	7101	1	120.000	527.184
7144	7085	7146	1	107.800	276.144
7113	7112	7165	1	120.000	292.880
7094	7100	7099	1	120.000	527.184
7128	7127	7132	1	120.000	527.184
7120	7119	7125	1	120.000	585.760
7100	7099	7156	1	120.000	292.880
7106	7105	7161	1	120.000	292.880
7134	7133	7136	1	109.100	644.336
7125	7126	7133	1	109.500	418.400
7143	7142	7183	1	120.000	292.880
7176	7139	7177	1	107.800	276.144
7090	7102	7101	1	120.000	527.184
7095	7094	7100	1	120.000	527.184
7138	7137	7173	1	110.700	313.800
7127	7126	7133	1	114.000	527.184
7129	7128	7168	1	120.000	292.880
7125	7126	7127	1	109.500	418.400
7131	7132	7172	1	120.000	292.880
7173	7137	7174	1	107.800	276.144
7092	7091	7151	1	120.000	292.880
7175	7139	7177	1	107.800	276.144
7088	7087	7148	1	110.700	313.800
7112	7111	7137	1	124.000	585.760
7134	7133	7135	1	109.100	644.336
7088	7087	7147	1	110.700	313.800
7175	7139	7176	1	107.800	276.144
7107	7106	7142	1	124.000	585.760
7116	7115	7126	1	124.000	585.760
7104	7103	7143	1	120.000	527.184
7139	7138	7140	1	112.700	488.273
7099	7100	7157	1	120.000	292.880
7115	7126	7125	1	109.500	418.400
7137	7138	7141	1	112.700	488.273
7109	7141	7138	1	111.100	527.184
7149	7088	7150	1	107.800	276.144
7135	7133	7136	1	109.100	644.336
7144	7085	7145	1	107.800	276.144
7097	7096	7154	1	120.000	292.880
7114	7113	7166	1	120.000	292.880
7178	7140	7180	1	107.800	276.144
7147	7087	7148	1	107.800	276.144
7087	7086	7103	1	116.000	418.400
7139	7138	7141	1	112.700	488.273
7111	7110	7164	1	122.260	502.080
7093	7092	7152	1	120.000	292.880
7138	7141	7182	1	110.700	313.800
7178	7140	7179	1	107.800	276.144
7109	7108	7163	1	120.000	292.880
7115	7114	7167	1	123.300	292.880
7131	7130	7170	1	120.000	292.880
7097	7099	7100	1	120.000	527.184
7185	7186	7187	1	107.200	433.462
7186	7187	7188	1	109.470	470.282
7187	7188	7189	1	109.500	418.400
7188	7189	7190	1	111.000	627.600
7189	7190	7191	1	120.000	585.760
7190	7191	7192	1	120.000	527.184
7191	7192	7193	1	120.000	527.184
7192	7193	7194	1	120.000	527.184
7193	7194	7195	1	120.000	527.184
7194	7195	7196	1	120.000	527.184
7195	7196	7197	1	120.000	527.184
7196	7197	7198	1	109.5	0.0
7196	7197	7199	1	120.000	527.184
7193	7194	7200	1	120.000	527.184
7192	7193	7201	1	120.000	527.184
7189	7190	7202	1	120.000	585.760
7185	7186	7203	1	116.000	418.400
7186	7203	7204	1	120.000	585.760
7203	7204	7205	1	120.000	527.184
7204	7205	7206	1	120.000	527.184
7205	7206	7207	1	124.000	585.760
7206	7207	7208	1	117.000	711.280
7207	7208	7209	1	124.000	585.760
7208	7209	7210	1	124.000	585.760
7209	7210	7211	1	124.000	585.760
7210	7211	7212	1	124.000	585.760
7211	7212	7213	1	124.000	585.760
7212	7213	7214	1	124.000	585.760
7213	7214	7215	1	117.000	711.280
7214	7215	7216	1	118.760	505.678
7215	7216	7217	1	124.000	585.760
7216	7217	7218	1	180.000	1255.200
7215	7216	7219	1	117.000	711.280
7216	7219	7220	1	124.000	585.760
7219	7220	7221	1	122.000	669.440
7220	7221	7222	1	180.000	1255.200
7219	7220	7223	1	122.000	669.440
7220	7223	7224	1	180.000	1255.200
7216	7219	7225	1	110.000	585.760
7214	7215	7226	1	124.000	585.760
7215	7226	7227	1	109.500	334.720
7226	7227	7228	1	120.000	585.760
7227	7228	7229	1	120.000	527.184
7228	7229	7230	1	120.000	527.184
7229	7230	7231	1	120.000	527.184
7226	7227	7232	1	120.000	585.760
7215	7226	7233	1	111.100	527.184
7226	7233	7234	1	109.500	418.400
7226	7233	7235	1	109.500	418.400
7226	7233	7236	1	109.500	418.400
7210	7211	7237	1	124.000	585.760
7211	7237	7238	1	111.100	527.184
7237	7238	7239	1	112.700	488.273
7237	7238	7240	1	112.700	488.273
7208	7209	7241	1	124.000	585.760
7205	7206	7242	1	120.000	527.184
7186	7203	7243	1	120.000	585.760
7186	7185	7244	1	109.500	292.880
7186	7185	7245	1	109.500	292.880
7186	7185	7246	1	109.500	292.880
7186	7187	7247	1	109.500	292.880
7186	7187	7248	1	109.500	292.880
7187	7188	7249	1	110.700	313.800
7187	7188	7250	1	110.700	313.800
7190	7191	7251	1	120.000	292.880
7191	7192	7252	1	120.000	292.880
7194	7195	7253	1	120.000	292.880
7195	7196	7254	1	120.000	292.880
7197	7198	7255	1	109.5	0.0
7197	7199	7256	1	120.000	292.880
7194	7200	7257	1	120.000	292.880
7193	7201	7258	1	120.000	292.880
7190	7202	7259	1	120.000	292.880
7203	7204	7260	1	120.000	292.880
7204	7205	7261	1	120.000	292.880
7206	7207	7262	1	123.300	292.880
7207	7208	7263	1	120.000	292.880
7209	7210	7264	1	122.260	502.080
7211	7212	7265	1	120.000	292.880
7212	7213	7266	1	120.000	292.880
7213	7214	7267	1	120.000	292.880
7227	7228	7268	1	120.000	292.880
7228	7229	7269	1	120.000	292.880
7229	7230	7270	1	120.000	292.880
7230	7231	7271	1	120.000	292.880
7227	7232	7272	1	120.000	292.880
7211	7237	7273	1	109.500	292.880
7211	7237	7274	1	109.500	292.880
7238	7239	7275	1	110.700	313.800
7238	7239	7276	1	110.700	313.800
7238	7239	7277	1	110.700	313.800
7238	7240	7278	1	110.700	313.800
7238	7240	7279	1	110.700	313.800
7238	7240	7280	1	110.700	313.800
7209	7241	7281	1	109.500	292.880
7209	7241	7282	1	109.500	292.880
7206	7242	7283	1	120.000	292.880
7203	7243	7284	1	120.000	292.880
7202	7201	7258	1	120.000	292.880
7206	7242	7243	1	120.000	527.184
7191	7190	7202	1	120.000	527.184
7238	7237	7274	1	110.700	313.800
7205	7204	7260	1	120.000	292.880
7242	7243	7284	1	120.000	292.880
7203	7243	7242	1	120.000	527.184
7230	7231	7232	1	120.000	527.184
7245	7185	7246	1	107.800	276.144
7198	7197	7199	1	109.5	0.0
7210	7209	7241	1	124.000	585.760
7238	7241	7281	1	110.700	313.800
7196	7195	7253	1	120.000	292.880
7232	7231	7271	1	120.000	292.880
7279	7240	7280	1	107.800	276.144
7221	7220	7223	1	118.760	505.678
7189	7188	7250	1	109.500	292.880
7189	7188	7249	1	109.500	292.880
7240	7238	7241	1	112.700	488.273
7281	7241	7282	1	107.800	276.144
7227	7232	7231	1	120.000	527.184
7217	7216	7219	1	122.000	669.440
7219	7225	7226	1	111.000	627.600
7208	7207	7262	1	120.000	292.880
7201	7202	7259	1	120.000	292.880
7193	7201	7202	1	120.000	527.184
7230	7229	7269	1	120.000	292.880
7194	7193	7201	1	120.000	527.184
7244	7185	7246	1	107.800	276.144
7213	7212	7265	1	120.000	292.880
7194	7200	7199	1	120.000	527.184
7228	7227	7232	1	120.000	527.184
7220	7219	7225	1	120.000	585.760
7200	7199	7256	1	120.000	292.880
7206	7205	7261	1	120.000	292.880
7234	7233	7236	1	109.100	644.336
7225	7226	7233	1	109.500	418.400
7243	7242	7283	1	120.000	292.880
7276	7239	7277	1	107.800	276.144
7190	7202	7201	1	120.000	527.184
7195	7194	7200	1	120.000	527.184
7238	7237	7273	1	110.700	313.800
7227	7226	7233	1	114.000	527.184
7229	7228	7268	1	120.000	292.880
7225	7226	7227	1	109.500	418.400
7231	7232	7272	1	120.000	292.880
7273	7237	7274	1	107.800	276.144
7192	7191	7251	1	120.000	292.880
7275	7239	7277	1	107.800	276.144
7188	7187	7248	1	110.700	313.800
7212	7211	7237	1	124.000	585.760
7234	7233	7235	1	109.100	644.336
7188	7187	7247	1	110.700	313.800
7275	7239	7276	1	107.800	276.144
7207	7206	7242	1	124.000	585.760
7216	7215	7226	1	124.000	585.760
7204	7203	7243	1	120.000	527.184
7239	7238	7240	1	112.700	488.273
7199	7200	7257	1	120.000	292.880
7215	7226	7225	1	109.500	418.400
7237	7238	7241	1	112.700	488.273
7209	7241	7238	1	111.100	527.184
7249	7188	7250	1	107.800	276.144
7235	7233	7236	1	109.100	644.336
7244	7185	7245	1	107.800	276.144
7197	7196	7254	1	120.000	292.880
7214	7213	7266	1	120.000	292.880
7278	7240	7280	1	107.800	276.144
7247	7187	7248	1	107.800	276.144
7187	7186	7203	1	116.000	418.400
7239	7238	7241	1	112.700	488.273
7211	7210	7264	1	122.260	502.080
7193	7192	7252	1	120.000	292.880
7238	7241	7282	1	110.700	313.800
7278	7240	7279	1	107.800	276.144
7209	7208	7263	1	120.000	292.880
7215	7214	7267	1	123.300	292.880
7231	7230	7270	1	120.000	292.880
7197	7199	7200	1	120.000	527.184
7285	7286	7287	1	107.200	433.462
7286	7287	7288	1	109.470	470.282
7287	7288	7289	1	109.500	418.400
7288	7289	7290	1	111.000	627.600
7289	7290	7291	1	120.000	585.760
7290	7291	7292	1	120.000	527.184
7291	7292	7293	1	120.000	527.184
7292	7293	7294	1	120.000	527.184
7293	7294	7295	1	120.000	527.184
7294	7295	7296	1	120.000	527.184
7295	7296	7297	1	120.000	527.184
7296	7297	7298	1	109.5	0.0
7296	7297	7299	1	120.000	527.184
7293	7294	7300	1	120.000	527.184
7292	7293	7301	1	120.000	527.184
7289	7290	7302	1	120.000	585.760
7285	7286	7303	1	116.000	418.400
7286	7303	7304	1	120.000	585.760
7303	7304	7305	1	120.000	527.184
7304	7305	7306	1	120.000	527.184
7305	7306	7307	1	124.000	585.760
7306	7307	7308	1	117.000	711.280
7307	7308	7309	1	124.000	585.760
7308	7309	7310	1	124.000	585.760
7309	7310	7311	1	124.000	585.760
7310	7311	7312	1	124.000	585.760
7311	7312	7313	1	124.000	585.760
7312	7313	7314	1	124.000	585.760
7313	7314	7315	1	117.000	711.280
7314	7315	7316	1	118.760	505.678
7315	7316	7317	1	124.000	585.760
7316	7317	7318	1	180.000	1255.200
7315	7316	7319	1	117.000	711.280
7316	7319	7320	1	124.000	585.760
7319	7320	7321	1	122.000	669.440
7320	7321	7322	1	180.000	1255.200
7319	7320	7323	1	122.000	669.440
7320	7323	7324	1	180.000	1255.200
7316	7319	7325	1	110.000	585.760
7314	7315	7326	1	124.000	585.760
7315	7326	7327	1	109.500	334.720
7326	7327	7328	1	120.000	585.760
7327	7328	7329	1	120.000	527.184
7328	7329	7330	1	120.000	527.184
7329	7330	7331	1	120.000	527.184
7326	7327	7332	1	120.000	585.760
7315	7326	7333	1	111.100	527.184
7326	7333	7334	1	109.500	418.400
7326	7333	7335	1	109.500	418.400
7326	7333	7336	1	109.500	418.400
7310	7311	7337	1	124.000	585.760
7311	7337	7338	1	111.100	527.184
7337	7338	7339	1	112.700	488.273
7337	7338	7340	1	112.700	488.273
7308	7309	7341	1	124.000	585.760
7305	7306	7342	1	120.000	527.184
7286	7303	7343	1	120.000	585.760
7286	7285	7344	1	109.500	292.880
7286	7285	7345	1	109.500	292.880
7286	7285	7346	1	109.500	292.880
7286	7287	7347	1	109.500	292.880
7286	7287	7348	1	109.500	292.880
7287	7288	7349	1	110.700	313.800
7287	7288	7350	1	110.700	313.800
7290	7291	7351	1	120.000	292.880
7291	7292	7352	1	120.000	292.880
7294	7295	7353	1	120.000	292.880
7295	7296	7354	1	120.000	292.880
7297	7298	7355	1	109.5	0.0
7297	7299	7356	1	120.000	292.880
7294	7300	7357	1	120.000	292.880
7293	7301	7358	1	120.000	292.880
7290	7302	7359	1	120.000	292.880
7303	7304	7360	1	120.000	292.880
7304	7305	7361	1	120.000	292.880
7306	7307	7362	1	123.300	292.880
7307	7308	7363	1	120.000	292.880
7309	7310	7364	1	122.260	502.080
7311	7312	7365	1	120.000	292.880
7312	7313	7366	1	120.000	292.880
7313	7314	7367	1	120.000	292.880
7327	7328	7368	1	120.000	292.880
7328	7329	7369	1	120.000	292.880
7329	7330	7370	1	120.000	292.880
7330	7331	7371	1	120.000	292.880
7327	7332	7372	1	120.000	292.880
7311	7337	7373	1	109.500	292.880
7311	7337	7374	1	109.500	292.880
7338	7339	7375	1	110.700	313.800
7338	7339	7376	1	110.700	313.800
7338	7339	7377	1	110.700	313.800
7338	7340	7378	1	110.700	313.800
7338	7340	7379	1	110.700	313.800
7338	7340	7380	1	110.700	313.800
7309	7341	7381	1	109.500	292.880
7309	7341	7382	1	109.500	292.880
7306	7342	7383	1	120.000	292.880
7303	7343	7384	1	120.000	292.880
7302	7301	7358	1	120.000	292.880
7306	7342	7343	1	120.000	527.184
7291	7290	7302	1	120.000	527.184
7338	7337	7374	1	110.700	313.800
7305	7304	7360	1	120.000	292.880
7342	7343	7384	1	120.000	292.880
7303	7343	7342	1	120.000	527.184
7330	7331	7332	1	120.000	527.184
7345	7285	7346	1	107.800	276.144
7298	7297	7299	1	109.5	0.0
7310	7309	7341	1	124.000	585.760
7338	7341	7381	1	110.700	313.800
7296	7295	7353	1	120.000	292.880
7332	7331	7371	1	120.000	292.880
7379	7340	7380	1	107.800	276.144
7321	7320	7323	1	118.760	505.678
7289	7288	7350	1	109.500	292.880
7289	7288	7349	1	109.500	292.880
7340	7338	7341	1	112.700	488.273
7381	7341	7382	1	107.800	276.144
7327	7332	7331	1	120.000	527.184
7317	7316	7319	1	122.000	669.440
7319	7325	7326	1	111.000	627.600
7308	7307	7362	1	120.000	292.880
7301	7302	7359	1	120.000	292.880
7293	7301	7302	1	120.000	527.184
7330	7329	7369	1	120.000	292.880
7294	7293	7301	1	120.000	527.184
7344	7285	7346	1	107.800	276.144
7313	7312	7365	1	120.000	292.880
7294	7300	7299	1	120.000	527.184
7328	7327	7332	1	120.000	527.184
7320	7319	7325	1	120.000	585.760
7300	7299	7356	1	120.000	292.880
7306	7305	7361	1	120.000	292.880
7334	7333	7336	1	109.100	644.336
7325	7326	7333	1	109.500	418.400
7343	7342	7383	1	120.000	292.880
7376	7339	7377	1	107.800	276.144
7290	7302	7301	1	120.000	527.184
7295	7294	7300	1	120.000	527.184
7338	7337	7373	1	110.700	313.800
7327	7326	7333	1	114.000	527.184
7329	7328	7368	1	120.000	292.880
7325	7326	7327	1	109.500	418.400
7331	7332	7372	1	120.000	292.880
7373	7337	7374	1	107.800	276.144
7292	7291	7351	1	120.000	292.880
7375	7339	7377	1	107.800	276.144
7288	7287	7348	1	110.700	313.800
7312	7311	7337	1	124.000	585.760
7334	7333	7335	1	109.100	644.336
7288	7287	7347	1	110.700	313.800
7375	7339	7376	1	107.800	276.144
7307	7306	7342	1	124.000	585.760
7316	7315	7326	1	124.000	585.760
7304	7303	7343	1	120.000	527.184
7339	7338	7340	1	112.700	488.273
7299	7300	7357	1	120.000	292.880
7315	7326	7325	1	109.500	418.400
7337	7338	7341	1	112.700	488.273
7309	7341	7338	1	111.100	527.184
7349	7288	7350	1	107.800	276.144
7335	7333	7336	1	109.100	644.336
7344	7285	7345	1	107.800	276.144
7297	7296	7354	1	120.000	292.880
7314	7313	7366	1	120.000	292.880
7378	7340	7380	1	107.800	276.144
7347	7287	7348	1	107.800	276.144
7287	7286	7303	1	116.000	418.400
7339	7338	7341	1	112.700	488.273
7311	7310	7364	1	122.260	502.080
7293	7292	7352	1	120.000	292.880
7338	7341	7382	1	110.700	313.800
7378	7340	7379	1	107.800	276.144
7309	7308	7363	1	120.000	292.880
7315	7314	7367	1	123.300	292.880
7331	7330	7370	1	120.000	292.880
7297	7299	7300	1	120.000	527.184
7385	7386	7387	1	107.200	433.462
7386	7387	7388	1	109.470	470.282
7387	7388	7389	1	109.500	418.400
7388	7389	7390	1	111.000	627.600
7389	7390	7391	1	120.000	585.760
7390	7391	7392	1	120.000	527.184
7391	7392	7393	1	120.000	527.184
7392	7393	7394	1	120.000	527.184
7393	7394	7395	1	120.000	527.184
7394	7395	7396	1	120.000	527.184
7395	7396	7397	1	120.000	527.184
7396	7397	7398	1	109.5	0.0
7396	7397	7399	1	120.000	527.184
7393	7394	7400	1	120.000	527.184
7392	7393	7401	1	120.000	527.184
7389	7390	7402	1	120.000	585.760
7385	7386	7403	1	116.000	418.400
7386	7403	7404	1	120.000	585.760
7403	7404	7405	1	120.000	527.184
7404	7405	7406	1	120.000	527.184
7405	7406	7407	1	124.000	585.760
7406	7407	7408	1	117.000	711.280
7407	7408	7409	1	124.000	585.760
7408	7409	7410	1	124.000	585.760
7409	7410	7411	1	124.000	585.760
7410	7411	7412	1	124.000	585.760
7411	7412	7413	1	124.000	585.760
7412	7413	7414	1	124.000	585.760
7413	7414	7415	1	117.000	711.280
7414	7415	7416	1	118.760	505.678
7415	7416	7417	1	124.000	585.760
7416	7417	7418	1	180.000	1255.200
7415	7416	7419	1	117.000	711.280
7416	7419	7420	1	124.000	585.760
7419	7420	7421	1	122.000	669.440
7420	7421	7422	1	180.000	1255.200
7419	7420	7423	1	122.000	669.440
7420	7423	7424	1	180.000	1255.200
7416	7419	7425	1	110.000	585.760
7414	7415	7426	1	124.000	585.760
7415	7426	7427	1	109.500	334.720
7426	7427	7428	1	120.000	585.760
7427	7428	7429	1	120.000	527.184
7428	7429	7430	1	120.000	527.184
7429	7430	7431	1	120.000	527.184
7426	7427	7432	1	120.000	585.760
7415	7426	7433	1	111.100	527.184
7426	7433	7434	1	109.500	418.400
7426	7433	7435	1	109.500	418.400
7426	7433	7436	1	109.500	418.400
7410	7411	7437	1	124.000	585.760
7411	7437	7438	1	111.100	527.184
7437	7438	7439	1	112.700	488.273
7437	7438	7440	1	112.700	488.273
7408	7409	7441	1	124.000	585.760
7405	7406	7442	1	120.000	527.184
7386	7403	7443	1	120.000	585.760
7386	7385	7444	1	109.500	292.880
7386	7385	7445	1	109.500	292.880
7386	7385	7446	1	109.500	292.880
7386	7387	7447	1	109.500	292.880
7386	7387	7448	1	109.500	292.880
7387	7388	7449	1	110.700	313.800
7387	7388	7450	1	110.700	313.800
7390	7391	7451	1	120.000	292.880
7391	7392	7452	1	120.000	292.880
7394	7395	7453	1	120.000	292.880
7395	7396	7454	1	120.000	292.880
7397	7398	7455	1	109.5	0.0
7397	7399	7456	1	120.000	292.880
7394	7400	7457	1	120.000	292.880
7393	7401	7458	1	120.000	292.880
7390	7402	7459	1	120.000	292.880
7403	7404	7460	1	120.000	292.880
7404	7405	7461	1	120.000	292.880
7406	7407	7462	1	123.300	292.880
7407	7408	7463	1	120.000	292.880
7409	7410	7464	1	122.260	502.080
7411	7412	7465	1	120.000	292.880
7412	7413	7466	1	120.000	292.880
7413	7414	7467	1	120.000	292.880
7427	7428	7468	1	120.000	292.880
7428	7429	7469	1	120.000	292.880
7429	7430	7470	1	120.000	292.880
7430	7431	7471	1	120.000	292.880
7427	7432	7472	1	120.000	292.880
7411	7437	7473	1	109.500	292.880
7411	7437	7474	1	109.500	292.880
7438	7439	7475	1	110.700	313.800
7438	7439	7476	1	110.700	313.800
7438	7439	7477	1	110.700	313.800
7438	7440	7478	1	110.700	313.800
7438	7440	7479	1	110.700	313.800
7438	7440	7480	1	110.700	313.800
7409	7441	7481	1	109.500	292.880
7409	7441	7482	1	109.500	292.880
7406	7442	7483	1	120.000	292.880
7403	7443	7484	1	120.000	292.880
7402	7401	7458	1	120.000	292.880
7406	7442	7443	1	120.000	527.184
7391	7390	7402	1	120.000	527.184
7438	7437	7474	1	110.700	313.800
7405	7404	7460	1	120.000	292.880
7442	7443	7484	1	120.000	292.880
7403	7443	7442	1	120.000	527.184
7430	7431	7432	1	120.000	527.184
7445	7385	7446	1	107.800	276.144
7398	7397	7399	1	109.5	0.0
7410	7409	7441	1	124.000	585.760
7438	7441	7481	1	110.700	313.800
7396	7395	7453	1	120.000	292.880
7432	7431	7471	1	120.000	292.880
7479	7440	7480	1	107.800	276.144
7421	7420	7423	1	118.760	505.678
7389	7388	7450	1	109.500	292.880
7389	7388	7449	1	109.500	292.880
7440	7438	7441	1	112.700	488.273
7481	7441	7482	1	107.800	276.144
7427	7432	7431	1	120.000	527.184
7417	7416	7419	1	122.000	669.440
7419	7425	7426	1	111.000	627.600
7408	7407	7462	1	120.000	292.880
7401	7402	7459	1	120.000	292.880
7393	7401	7402	1	120.000	527.184
7430	7429	7469	1	120.000	292.880
7394	7393	7401	1	120.000	527.184
7444	7385	7446	1	107.800	276.144
7413	7412	7465	1	120.000	292.880
7394	7400	7399	1	120.000	527.184
7428	7427	7432	1	120.000	527.184
7420	7419	7425	1	120.000	585.760
7400	7399	7456	1	120.000	292.880
7406	7405	7461	1	120.000	292.880
7434	7433	7436	1	109.100	644.336
7425	7426	7433	1	109.500	418.400
7443	7442	7483	1	120.000	292.880
7476	7439	7477	1	107.800	276.144
7390	7402	7401	1	120.000	527.184
7395	7394	7400	1	120.000	527.184
7438	7437	7473	1	110.700	313.800
7427	7426	7433	1	114.000	527.184
7429	7428	7468	1	120.000	292.880
7425	7426	7427	1	109.500	418.400
7431	7432	7472	1	120.000	292.880
7473	7437	7474	1	107.800	276.144
7392	7391	7451	1	120.000	292.880
7475	7439	7477	1	107.800	276.144
7388	7387	7448	1	110.700	313.800
7412	7411	7437	1	124.000	585.760
7434	7433	7435	1	109.100	644.336
7388	7387	7447	1	110.700	313.800
7475	7439	7476	1	107.800	276.144
7407	7406	7442	1	124.000	585.760
7416	7415	7426	1	124.000	585.760
7404	7403	7443	1	120.000	527.184
7439	7438	7440	1	112.700	488.273
7399	7400	7457	1	120.000	292.880
7415	7426	7425	1	109.500	418.400
7437	7438	7441	1	112.700	488.273
7409	7441	7438	1	111.100	527.184
7449	7388	7450	1	107.800	276.144
7435	7433	7436	1	109.100	644.336
7444	7385	7445	1	107.800	276.144
7397	7396	7454	1	120.000	292.880
7414	7413	7466	1	120.000	292.880
7478	7440	7480	1	107.800	276.144
7447	7387	7448	1	107.800	276.144
7387	7386	7403	1	116.000	418.400
7439	7438	7441	1	112.700	488.273
7411	7410	7464	1	122.260	502.080
7393	7392	7452	1	120.000	292.880
7438	7441	7482	1	110.700	313.800
7478	7440	7479	1	107.800	276.144
7409	7408	7463	1	120.000	292.880
7415	7414	7467	1	123.300	292.880
7431	7430	7470	1	120.000	292.880
7397	7399	7400	1	120.000	527.184
7485	7486	7487	1	107.200	433.462
7486	7487	7488	1	109.470	470.282
7487	7488	7489	1	109.500	418.400
7488	7489	7490	1	111.000	627.600
7489	7490	7491	1	120.000	585.760
7490	7491	7492	1	120.000	527.184
7491	7492	7493	1	120.000	527.184
7492	7493	7494	1	120.000	527.184
7493	7494	7495	1	120.000	527.184
7494	7495	7496	1	120.000	527.184
7495	7496	7497	1	120.000	527.184
7496	7497	7498	1	109.5	0.0
7496	7497	7499	1	120.000	527.184
7493	7494	7500	1	120.000	527.184
7492	7493	7501	1	120.000	527.184
7489	7490	7502	1	120.000	585.760
7485	7486	7503	1	116.000	418.400
7486	7503	7504	1	120.000	585.760
7503	7504	7505	1	120.000	527.184
7504	7505	7506	1	120.000	527.184
7505	7506	7507	1	124.000	585.760
7506	7507	7508	1	117.000	711.280
7507	7508	7509	1	124.000	585.760
7508	7509	7510	1	124.000	585.760
7509	7510	7511	1	124.000	585.760
7510	7511	7512	1	124.000	585.760
7511	7512	7513	1	124.000	585.760
7512	7513	7514	1	124.000	585.760
7513	7514	7515	1	117.000	711.280
7514	7515	7516	1	118.760	505.678
7515	7516	7517	1	124.000	585.760
7516	7517	7518	1	180.000	1255.200
7515	7516	7519	1	117.000	711.280
7516	7519	7520	1	124.000	585.760
7519	7520	7521	1	122.000	669.440
7520	7521	7522	1	180.000	1255.200
7519	7520	7523	1	122.000	669.440
7520	7523	7524	1	180.000	1255.200
7516	7519	7525	1	110.000	585.760
7514	7515	7526	1	124.000	585.760
7515	7526	7527	1	109.500	334.720
7526	7527	7528	1	120.000	585.760
7527	7528	7529	1	120.000	527.184
7528	7529	7530	1	120.000	527.184
7529	7530	7531	1	120.000	527.184
7526	7527	7532	1	120.000	585.760
7515	7526	7533	1	111.100	527.184
7526	7533	7534	1	109.500	418.400
7526	7533	7535	1	109.500	418.400
7526	7533	7536	1	109.500	418.400
7510	7511	7537	1	124.000	585.760
7511	7537	7538	1	111.100	527.184
7537	7538	7539	1	112.700	488.273
7537	7538	7540	1	112.700	488.273
7508	7509	7541	1	124.000	585.760
7505	7506	7542	1	120.000	527.184
7486	7503	7543	1	120.000	585.760
7486	7485	7544	1	109.500	292.880
7486	7485	7545	1	109.500	292.880
7486	7485	7546	1	109.500	292.880
7486	7487	7547	1	109.500	292.880
7486	7487	7548	1	109.500	292.880
7487	7488	7549	1	110.700	313.800
7487	7488	7550	1	110.700	313.800
7490	7491	7551	1	120.000	292.880
7491	7492	7552	1	120.000	292.880
7494	7495	7553	1	120.000	292.880
7495	7496	7554	1	120.000	292.880
7497	7498	7555	1	109.5	0.0
7497	7499	7556	1	120.000	292.880
7494	7500	7557	1	120.000	292.880
7493	7501	7558	1	120.000	292.880
7490	7502	7559	1	120.000	292.880
7503	7504	7560	1	120.000	292.880
7504	7505	7561	1	120.000	292.880
7506	7507	7562	1	123.300	292.880
7507	7508	7563	1	120.000	292.880
7509	7510	7564	1	122.260	502.080
7511	7512	7565	1	120.000	292.880
7512	7513	7566	1	120.000	292.880
7513	7514	7567	1	120.000	292.880
7527	7528	7568	1	120.000	292.880
7528	7529	7569	1	120.000	292.880
7529	7530	7570	1	120.000	292.880
7530	7531	7571	1	120.000	292.880
7527	7532	7572	1	120.000	292.880
7511	7537	7573	1	109.500	292.880
7511	7537	7574	1	109.500	292.880
7538	7539	7575	1	110.700	313.800
7538	7539	7576	1	110.700	313.800
7538	7539	7577	1	110.700	313.800
7538	7540	7578	1	110.700	313.800
7538	7540	7579	1	110.700	313.800
7538	7540	7580	1	110.700	313.800
7509	7541	7581	1	109.500	292.880
7509	7541	7582	1	109.500	292.880
7506	7542	7583	1	120.000	292.880
7503	7543	7584	1	120.000	292.880
7502	7501	7558	1	120.000	292.880
7506	7542	7543	1	120.000	527.184
7491	7490	7502	1	120.000	527.184
7538	7537	7574	1	110.700	313.800
7505	7504	7560	1	120.000	292.880
7542	7543	7584	1	120.000	292.880
7503	7543	7542	1	120.000	527.184
7530	7531	7532	1	120.000	527.184
7545	7485	7546	1	107.800	276.144
7498	7497	7499	1	109.5	0.0
7510	7509	7541	1	124.000	585.760
7538	7541	7581	1	110.700	313.800
7496	7495	7553	1	120.000	292.880
7532	7531	7571	1	120.000	292.880
7579	7540	7580	1	107.800	276.144
7521	7520	7523	1	118.760	505.678
7489	7488	7550	1	109.500	292.880
7489	7488	7549	1	109.500	292.880
7540	7538	7541	1	112.700	488.273
7581	7541	7582	1	107.800	276.144
7527	7532	7531	1	120.000	527.184
7517	7516	7519	1	122.000	669.440
7519	7525	7526	1	111.000	627.600
7508	7507	7562	1	120.000	292.880
7501	7502	7559	1	120.000	292.880
7493	7501	7502	1	120.000	527.184
7530	7529	7569	1	120.000	292.880
7494	7493	7501	1	120.000	527.184
7544	7485	7546	1	107.800	276.144
7513	7512	7565	1	120.000	292.880
7494	7500	7499	1	120.000	527.184
7528	7527	7532	1	120.000	527.184
7520	7519	7525	1	120.000	585.760
7500	7499	7556	1	120.000	292.880
7506	7505	7561	1	120.000	292.880
7534	7533	7536	1	109.100	644.336
7525	7526	7533	1	109.500	418.400
7543	7542	7583	1	120.000	292.880
7576	7539	7577	1	107.800	276.144
7490	7502	7501	1	120.000	527.184
7495	7494	7500	1	120.000	527.184
7538	7537	7573	1	110.700	313.800
7527	7526	7533	1	114.000	527.184
7529	7528	7568	1	120.000	292.880
7525	7526	7527	1	109.500	418.400
7531	7532	7572	1	120.000	292.880
7573	7537	7574	1	107.800	276.144
7492	7491	7551	1	120.000	292.880
7575	7539	7577	1	107.800	276.144
7488	7487	7548	1	110.700	313.800
7512	7511	7537	1	124.000	585.760
7534	7533	7535	1	109.100	644.336
7488	7487	7547	1	110.700	313.800
7575	7539	7576	1	107.800	276.144
7507	7506	7542	1	124.000	585.760
7516	7515	7526	1	124.000	585.760
7504	7503	7543	1	120.000	527.184
7539	7538	7540	1	112.700	488.273
7499	7500	7557	1	120.000	292.880
7515	7526	7525	1	109.500	418.400
7537	7538	7541	1	112.700	488.273
7509	7541	7538	1	111.100	527.184
7549	7488	7550	1	107.800	276.144
7535	7533	7536	1	109.100	644.336
7544	7485	7545	1	107.800	276.144
7497	7496	7554	1	120.000	292.880
7514	7513	7566	1	120.000	292.880
7578	7540	7580	1	107.800	276.144
7547	7487	7548	1	107.800	276.144
7487	7486	7503	1	116.000	418.400
7539	7538	7541	1	112.700	488.273
7511	7510	7564	1	122.260	502.080
7493	7492	7552	1	120.000	292.880
7538	7541	7582	1	110.700	313.800
7578	7540	7579	1	107.800	276.144
7509	7508	7563	1	120.000	292.880
7515	7514	7567	1	123.300	292.880
7531	7530	7570	1	120.000	292.880
7497	7499	7500	1	120.000	527.184
7585	7586	7587	1	107.200	433.462
7586	7587	7588	1	109.470	470.282
7587	7588	7589	1	109.500	418.400
7588	7589	7590	1	111.000	627.600
7589	7590	7591	1	120.000	585.760
7590	7591	7592	1	120.000	527.184
7591	7592	7593	1	120.000	527.184
7592	7593	7594	1	120.000	527.184
7593	7594	7595	1	120.000	527.184
7594	7595	7596	1	120.000	527.184
7595	7596	7597	1	120.000	527.184
7596	7597	7598	1	109.5	0.0
7596	7597	7599	1	120.000	527.184
7593	7594	7600	1	120.000	527.184
7592	7593	7601	1	120.000	527.184
7589	7590	7602	1	120.000	585.760
7585	7586	7603	1	116.000	418.400
7586	7603	7604	1	120.000	585.760
7603	7604	7605	1	120.000	527.184
7604	7605	7606	1	120.000	527.184
7605	7606	7607	1	124.000	585.760
7606	7607	7608	1	117.000	711.280
7607	7608	7609	1	124.000	585.760
7608	7609	7610	1	124.000	585.760
7609	7610	7611	1	124.000	585.760
7610	7611	7612	1	124.000	585.760
7611	7612	7613	1	124.000	585.760
7612	7613	7614	1	124.000	585.760
7613	7614	7615	1	117.000	711.280
7614	7615	7616	1	118.760	505.678
7615	7616	7617	1	124.000	585.760
7616	7617	7618	1	180.000	1255.200
7615	7616	7619	1	117.000	711.280
7616	7619	7620	1	124.000	585.760
7619	7620	7621	1	122.000	669.440
7620	7621	7622	1	180.000	1255.200
7619	7620	7623	1	122.000	669.440
7620	7623	7624	1	180.000	1255.200
7616	7619	7625	1	110.000	585.760
7614	7615	7626	1	124.000	585.760
7615	7626	7627	1	109.500	334.720
7626	7627	7628	1	120.000	585.760
7627	7628	7629	1	120.000	527.184
7628	7629	7630	1	120.000	527.184
7629	7630	7631	1	120.000	527.184
7626	7627	7632	1	120.000	585.760
7615	7626	7633	1	111.100	527.184
7626	7633	7634	1	109.500	418.400
7626	7633	7635	1	109.500	418.400
7626	7633	7636	1	109.500	418.400
7610	7611	7637	1	124.000	585.760
7611	7637	7638	1	111.100	527.184
7637	7638	7639	1	112.700	488.273
7637	7638	7640	1	112.700	488.273
7608	7609	7641	1	124.000	585.760
7605	7606	7642	1	120.000	527.184
7586	7603	7643	1	120.000	585.760
7586	7585	7644	1	109.500	292.880
7586	7585	7645	1	109.500	292.880
7586	7585	7646	1	109.500	292.880
7586	7587	7647	1	109.500	292.880
7586	7587	7648	1	109.500	292.880
7587	7588	7649	1	110.700	313.800
7587	7588	7650	1	110.700	313.800
7590	7591	7651	1	120.000	292.880
7591	7592	7652	1	120.000	292.880
7594	7595	7653	1	120.000	292.880
7595	7596	7654	1	120.000	292.880
7597	7598	7655	1	109.5	0.0
7597	7599	7656	1	120.000	292.880
7594	7600	7657	1	120.000	292.880
7593	7601	7658	1	120.000	292.880
7590	7602	7659	1	120.000	292.880
7603	7604	7660	1	120.000	292.880
7604	7605	7661	1	120.000	292.880
7606	7607	7662	1	123.300	292.880
7607	7608	7663	1	120.000	292.880
7609	7610	7664	1	122.260	502.080
7611	7612	7665	1	120.000	292.880
7612	7613	7666	1	120.000	292.880
7613	7614	7667	1	120.000	292.880
7627	7628	7668	1	120.000	292.880
7628	7629	7669	1	120.000	292.880
7629	7630	7670	1	120.000	292.880
7630	7631	7671	1	120.000	292.880
7627	7632	7672	1	120.000	292.880
7611	7637	7673	1	109.500	292.880
7611	7637	7674	1	109.500	292.880
7638	7639	7675	1	110.700	313.800
7638	7639	7676	1	110.700	313.800
7638	7639	7677	1	110.700	313.800
7638	7640	7678	1	110.700	313.800
7638	7640	7679	1	110.700	313.800
7638	7640	7680	1	110.700	313.800
7609	7641	7681	1	109.500	292.880
7609	7641	7682	1	109.500	292.880
7606	7642	7683	1	120.000	292.880
7603	7643	7684	1	120.000	292.880
7602	7601	7658	1	120.000	292.880
7606	7642	7643	1	120.000	527.184
7591	7590	7602	1	120.000	527.184
7638	7637	7674	1	110.700	313.800
7605	7604	7660	1	120.000	292.880
7642	7643	7684	1	120.000	292.880
7603	7643	7642	1	120.000	527.184
7630	7631	7632	1	120.000	527.184
7645	7585	7646	1	107.800	276.144
7598	7597	7599	1	109.5	0.0
7610	7609	7641	1	124.000	585.760
7638	7641	7681	1	110.700	313.800
7596	7595	7653	1	120.000	292.880
7632	7631	7671	1	120.000	292.880
7679	7640	7680	1	107.800	276.144
7621	7620	7623	1	118.760	505.678
7589	7588	7650	1	109.500	292.880
7589	7588	7649	1	109.500	292.880
7640	7638	7641	1	112.700	488.273
7681	7641	7682	1	107.800	276.144
7627	7632	7631	1	120.000	527.184
7617	7616	7619	1	122.000	669.440
7619	7625	7626	1	111.000	627.600
7608	7607	7662	1	120.000	292.880
7601	7602	7659	1	120.000	292.880
7593	7601	7602	1	120.000	527.184
7630	7629	7669	1	120.000	292.880
7594	7593	7601	1	120.000	527.184
7644	7585	7646	1	107.800	276.144
7613	7612	7665	1	120.000	292.880
7594	7600	7599	1	120.000	527.184
7628	7627	7632	1	120.000	527.184
7620	7619	7625	1	120.000	585.760
7600	7599	7656	1	120.000	292.880
7606	7605	7661	1	120.000	292.880
7634	7633	7636	1	109.100	644.336
7625	7626	7633	1	109.500	418.400
7643	7642	7683	1	120.000	292.880
7676	7639	7677	1	107.800	276.144
7590	7602	7601	1	120.000	527.184
7595	7594	7600	1	120.000	527.184
7638	7637	7673	1	110.700	313.800
7627	7626	7633	1	114.000	527.184
7629	7628	7668	1	120.000	292.880
7625	7626	7627	1	109.500	418.400
7631	7632	7672	1	120.000	292.880
7673	7637	7674	1	107.800	276.144
7592	7591	7651	1	120.000	292.880
7675	7639	7677	1	107.800	276.144
7588	7587	7648	1	110.700	313.800
7612	7611	7637	1	124.000	585.760
7634	7633	7635	1	109.100	644.336
7588	7587	7647	1	110.700	313.800
7675	7639	7676	1	107.800	276.144
7607	7606	7642	1	124.000	585.760
7616	7615	7626	1	124.000	585.760
7604	7603	7643	1	120.000	527.184
7639	7638	7640	1	112.700	488.273
7599	7600	7657	1	120.000	292.880
7615	7626	7625	1	109.500	418.400
7637	7638	7641	1	112.700	488.273
7609	7641	7638	1	111.100	527.184
7649	7588	7650	1	107.800	276.144
7635	7633	7636	1	109.100	644.336
7644	7585	7645	1	107.800	276.144
7597	7596	7654	1	120.000	292.880
7614	7613	7666	1	120.000	292.880
7678	7640	7680	1	107.800	276.144
7647	7587	7648	1	107.800	276.144
7587	7586	7603	1	116.000	418.400
7639	7638	7641	1	112.700	488.273
7611	7610	7664	1	122.260	502.080
7593	7592	7652	1	120.000	292.880
7638	7641	7682	1	110.700	313.800
7678	7640	7679	1	107.800	276.144
7609	7608	7663	1	120.000	292.880
7615	7614	7667	1	123.300	292.880
7631	7630	7670	1	120.000	292.880
7597	7599	7600	1	120.000	527.184
7685	7686	7687	1	107.200	433.462
7686	7687	7688	1	109.470	470.282
7687	7688	7689	1	109.500	418.400
7688	7689	7690	1	111.000	627.600
7689	7690	7691	1	120.000	585.760
7690	7691	7692	1	120.000	527.184
7691	7692	7693	1	120.000	527.184
7692	7693	7694	1	120.000	527.184
7693	7694	7695	1	120.000	527.184
7694	7695	7696	1	120.000	527.184
7695	7696	7697	1	120.000	527.184
7696	7697	7698	1	109.5	0.0
7696	7697	7699	1	120.000	527.184
7693	7694	7700	1	120.000	527.184
7692	7693	7701	1	120.000	527.184
7689	7690	7702	1	120.000	585.760
7685	7686	7703	1	116.000	418.400
7686	7703	7704	1	120.000	585.760
7703	7704	7705	1	120.000	527.184
7704	7705	7706	1	120.000	527.184
7705	7706	7707	1	124.000	585.760
7706	7707	7708	1	117.000	711.280
7707	7708	7709	1	124.000	585.760
7708	7709	7710	1	124.000	585.760
7709	7710	7711	1	124.000	585.760
7710	7711	7712	1	124.000	585.760
7711	7712	7713	1	124.000	585.760
7712	7713	7714	1	124.000	585.760
7713	7714	7715	1	117.000	711.280
7714	7715	7716	1	118.760	505.678
7715	7716	7717	1	124.000	585.760
7716	7717	7718	1	180.000	1255.200
7715	7716	7719	1	117.000	711.280
7716	7719	7720	1	124.000	585.760
7719	7720	7721	1	122.000	669.440
7720	7721	7722	1	180.000	1255.200
7719	7720	7723	1	122.000	669.440
7720	7723	7724	1	180.000	1255.200
7716	7719	7725	1	110.000	585.760
7714	7715	7726	1	124.000	585.760
7715	7726	7727	1	109.500	334.720
7726	7727	7728	1	120.000	585.760
7727	7728	7729	1	120.000	527.184
7728	7729	7730	1	120.000	527.184
7729	7730	7731	1	120.000	527.184
7726	7727	7732	1	120.000	585.760
7715	7726	7733	1	111.100	527.184
7726	7733	7734	1	109.500	418.400
7726	7733	7735	1	109.500	418.400
7726	7733	7736	1	109.500	418.400
7710	7711	7737	1	124.000	585.760
7711	7737	7738	1	111.100	527.184
7737	7738	7739	1	112.700	488.273
7737	7738	7740	1	112.700	488.273
7708	7709	7741	1	124.000	585.760
7705	7706	7742	1	120.000	527.184
7686	7703	7743	1	120.000	585.760
7686	7685	7744	1	109.500	292.880
7686	7685	7745	1	109.500	292.880
7686	7685	7746	1	109.500	292.880
7686	7687	7747	1	109.500	292.880
7686	7687	7748	1	109.500	292.880
7687	7688	7749	1	110.700	313.800
7687	7688	7750	1	110.700	313.800
7690	7691	7751	1	120.000	292.880
7691	7692	7752	1	120.000	292.880
7694	7695	7753	1	120.000	292.880
7695	7696	7754	1	120.000	292.880
7697	7698	7755	1	109.5	0.0
7697	7699	7756	1	120.000	292.880
7694	7700	7757	1	120.000	292.880
7693	7701	7758	1	120.000	292.880
7690	7702	7759	1	120.000	292.880
7703	7704	7760	1	120.000	292.880
7704	7705	7761	1	120.000	292.880
7706	7707	7762	1	123.300	292.880
7707	7708	7763	1	120.000	292.880
7709	7710	7764	1	122.260	502.080
7711	7712	7765	1	120.000	292.880
7712	7713	7766	1	120.000	292.880
7713	7714	7767	1	120.000	292.880
7727	7728	7768	1	120.000	292.880
7728	7729	7769	1	120.000	292.880
7729	7730	7770	1	120.000	292.880
7730	7731	7771	1	120.000	292.880
7727	7732	7772	1	120.000	292.880
7711	7737	7773	1	109.500	292.880
7711	7737	7774	1	109.500	292.880
7738	7739	7775	1	110.700	313.800
7738	7739	7776	1	110.700	313.800
7738	7739	7777	1	110.700	313.800
7738	7740	7778	1	110.700	313.800
7738	7740	7779	1	110.700	313.800
7738	7740	7780	1	110.700	313.800
7709	7741	7781	1	109.500	292.880
7709	7741	7782	1	109.500	292.880
7706	7742	7783	1	120.000	292.880
7703	7743	7784	1	120.000	292.880
7702	7701	7758	1	120.000	292.880
7706	7742	7743	1	120.000	527.184
7691	7690	7702	1	120.000	527.184
7738	7737	7774	1	110.700	313.800
7705	7704	7760	1	120.000	292.880
7742	7743	7784	1	120.000	292.880
7703	7743	7742	1	120.000	527.184
7730	7731	7732	1	120.000	527.184
7745	7685	7746	1	107.800	276.144
7698	7697	7699	1	109.5	0.0
7710	7709	7741	1	124.000	585.760
7738	7741	7781	1	110.700	313.800
7696	7695	7753	1	120.000	292.880
7732	7731	7771	1	120.000	292.880
7779	7740	7780	1	107.800	276.144
7721	7720	7723	1	118.760	505.678
7689	7688	7750	1	109.500	292.880
7689	7688	7749	1	109.500	292.880
7740	7738	7741	1	112.700	488.273
7781	7741	7782	1	107.800	276.144
7727	7732	7731	1	120.000	527.184
7717	7716	7719	1	122.000	669.440
7719	7725	7726	1	111.000	627.600
7708	7707	7762	1	120.000	292.880
7701	7702	7759	1	120.000	292.880
7693	7701	7702	1	120.000	527.184
7730	7729	7769	1	120.000	292.880
7694	7693	7701	1	120.000	527.184
7744	7685	7746	1	107.800	276.144
7713	7712	7765	1	120.000	292.880
7694	7700	7699	1	120.000	527.184
7728	7727	7732	1	120.000	527.184
7720	7719	7725	1	120.000	585.760
7700	7699	7756	1	120.000	292.880
7706	7705	7761	1	120.000	292.880
7734	7733	7736	1	109.100	644.336
7725	7726	7733	1	109.500	418.400
7743	7742	7783	1	120.000	292.880
7776	7739	7777	1	107.800	276.144
7690	7702	7701	1	120.000	527.184
7695	7694	7700	1	120.000	527.184
7738	7737	7773	1	110.700	313.800
7727	7726	7733	1	114.000	527.184
7729	7728	7768	1	120.000	292.880
7725	7726	7727	1	109.500	418.400
7731	7732	7772	1	120.000	292.880
7773	7737	7774	1	107.800	276.144
7692	7691	7751	1	120.000	292.880
7775	7739	7777	1	107.800	276.144
7688	7687	7748	1	110.700	313.800
7712	7711	7737	1	124.000	585.760
7734	7733	7735	1	109.100	644.336
7688	7687	7747	1	110.700	313.800
7775	7739	7776	1	107.800	276.144
7707	7706	7742	1	124.000	585.760
7716	7715	7726	1	124.000	585.760
7704	7703	7743	1	120.000	527.184
7739	7738	7740	1	112.700	488.273
7699	7700	7757	1	120.000	292.880
7715	7726	7725	1	109.500	418.400
7737	7738	7741	1	112.700	488.273
7709	7741	7738	1	111.100	527.184
7749	7688	7750	1	107.800	276.144
7735	7733	7736	1	109.100	644.336
7744	7685	7745	1	107.800	276.144
7697	7696	7754	1	120.000	292.880
7714	7713	7766	1	120.000	292.880
7778	7740	7780	1	107.800	276.144
7747	7687	7748	1	107.800	276.144
7687	7686	7703	1	116.000	418.400
7739	7738	7741	1	112.700	488.273
7711	7710	7764	1	122.260	502.080
7693	7692	7752	1	120.000	292.880
7738	7741	7782	1	110.700	313.800
7778	7740	7779	1	107.800	276.144
7709	7708	7763	1	120.000	292.880
7715	7714	7767	1	123.300	292.880
7731	7730	7770	1	120.000	292.880
7697	7699	7700	1	120.000	527.184
7785	7786	7787	1	107.200	433.462
7786	7787	7788	1	109.470	470.282
7787	7788	7789	1	109.500	418.400
7788	7789	7790	1	111.000	627.600
7789	7790	7791	1	120.000	585.760
7790	7791	7792	1	120.000	527.184
7791	7792	7793	1	120.000	527.184
7792	7793	7794	1	120.000	527.184
7793	7794	7795	1	120.000	527.184
7794	7795	7796	1	120.000	527.184
7795	7796	7797	1	120.000	527.184
7796	7797	7798	1	109.5	0.0
7796	7797	7799	1	120.000	527.184
7793	7794	7800	1	120.000	527.184
7792	7793	7801	1	120.000	527.184
7789	7790	7802	1	120.000	585.760
7785	7786	7803	1	116.000	418.400
7786	7803	7804	1	120.000	585.760
7803	7804	7805	1	120.000	527.184
7804	7805	7806	1	120.000	527.184
7805	7806	7807	1	124.000	585.760
7806	7807	7808	1	117.000	711.280
7807	7808	7809	1	124.000	585.760
7808	7809	7810	1	124.000	585.760
7809	7810	7811	1	124.000	585.760
7810	7811	7812	1	124.000	585.760
7811	7812	7813	1	124.000	585.760
7812	7813	7814	1	124.000	585.760
7813	7814	7815	1	117.000	711.280
7814	7815	7816	1	118.760	505.678
7815	7816	7817	1	124.000	585.760
7816	7817	7818	1	180.000	1255.200
7815	7816	7819	1	117.000	711.280
7816	7819	7820	1	124.000	585.760
7819	7820	7821	1	122.000	669.440
7820	7821	7822	1	180.000	1255.200
7819	7820	7823	1	122.000	669.440
7820	7823	7824	1	180.000	1255.200
7816	7819	7825	1	110.000	585.760
7814	7815	7826	1	124.000	585.760
7815	7826	7827	1	109.500	334.720
7826	7827	7828	1	120.000	585.760
7827	7828	7829	1	120.000	527.184
7828	7829	7830	1	120.000	527.184
7829	7830	7831	1	120.000	527.184
7826	7827	7832	1	120.000	585.760
7815	7826	7833	1	111.100	527.184
7826	7833	7834	1	109.500	418.400
7826	7833	7835	1	109.500	418.400
7826	7833	7836	1	109.500	418.400
7810	7811	7837	1	124.000	585.760
7811	7837	7838	1	111.100	527.184
7837	7838	7839	1	112.700	488.273
7837	7838	7840	1	112.700	488.273
7808	7809	7841	1	124.000	585.760
7805	7806	7842	1	120.000	527.184
7786	7803	7843	1	120.000	585.760
7786	7785	7844	1	109.500	292.880
7786	7785	7845	1	109.500	292.880
7786	7785	7846	1	109.500	292.880
7786	7787	7847	1	109.500	292.880
7786	7787	7848	1	109.500	292.880
7787	7788	7849	1	110.700	313.800
7787	7788	7850	1	110.700	313.800
7790	7791	7851	1	120.000	292.880
7791	7792	7852	1	120.000	292.880
7794	7795	7853	1	120.000	292.880
7795	7796	7854	1	120.000	292.880
7797	7798	7855	1	109.5	0.0
7797	7799	7856	1	120.000	292.880
7794	7800	7857	1	120.000	292.880
7793	7801	7858	1	120.000	292.880
7790	7802	7859	1	120.000	292.880
7803	7804	7860	1	120.000	292.880
7804	7805	7861	1	120.000	292.880
7806	7807	7862	1	123.300	292.880
7807	7808	7863	1	120.000	292.880
7809	7810	7864	1	122.260	502.080
7811	7812	7865	1	120.000	292.880
7812	7813	7866	1	120.000	292.880
7813	7814	7867	1	120.000	292.880
7827	7828	7868	1	120.000	292.880
7828	7829	7869	1	120.000	292.880
7829	7830	7870	1	120.000	292.880
7830	7831	7871	1	120.000	292.880
7827	7832	7872	1	120.000	292.880
7811	7837	7873	1	109.500	292.880
7811	7837	7874	1	109.500	292.880
7838	7839	7875	1	110.700	313.800
7838	7839	7876	1	110.700	313.800
7838	7839	7877	1	110.700	313.800
7838	7840	7878	1	110.700	313.800
7838	7840	7879	1	110.700	313.800
7838	7840	7880	1	110.700	313.800
7809	7841	7881	1	109.500	292.880
7809	7841	7882	1	109.500	292.880
7806	7842	7883	1	120.000	292.880
7803	7843	7884	1	120.000	292.880
7802	7801	7858	1	120.000	292.880
7806	7842	7843	1	120.000	527.184
7791	7790	7802	1	120.000	527.184
7838	7837	7874	1	110.700	313.800
7805	7804	7860	1	120.000	292.880
7842	7843	7884	1	120.000	292.880
7803	7843	7842	1	120.000	527.184
7830	7831	7832	1	120.000	527.184
7845	7785	7846	1	107.800	276.144
7798	7797	7799	1	109.5	0.0
7810	7809	7841	1	124.000	585.760
7838	7841	7881	1	110.700	313.800
7796	7795	7853	1	120.000	292.880
7832	7831	7871	1	120.000	292.880
7879	7840	7880	1	107.800	276.144
7821	7820	7823	1	118.760	505.678
7789	7788	7850	1	109.500	292.880
7789	7788	7849	1	109.500	292.880
7840	7838	7841	1	112.700	488.273
7881	7841	7882	1	107.800	276.144
7827	7832	7831	1	120.000	527.184
7817	7816	7819	1	122.000	669.440
7819	7825	7826	1	111.000	627.600
7808	7807	7862	1	120.000	292.880
7801	7802	7859	1	120.000	292.880
7793	7801	7802	1	120.000	527.184
7830	7829	7869	1	120.000	292.880
7794	7793	7801	1	120.000	527.184
7844	7785	7846	1	107.800	276.144
7813	7812	7865	1	120.000	292.880
7794	7800	7799	1	120.000	527.184
7828	7827	7832	1	120.000	527.184
7820	7819	7825	1	120.000	585.760
7800	7799	7856	1	120.000	292.880
7806	7805	7861	1	120.000	292.880
7834	7833	7836	1	109.100	644.336
7825	7826	7833	1	109.500	418.400
7843	7842	7883	1	120.000	292.880
7876	7839	7877	1	107.800	276.144
7790	7802	7801	1	120.000	527.184
7795	7794	7800	1	120.000	527.184
7838	7837	7873	1	110.700	313.800
7827	7826	7833	1	114.000	527.184
7829	7828	7868	1	120.000	292.880
7825	7826	7827	1	109.500	418.400
7831	7832	7872	1	120.000	292.880
7873	7837	7874	1	107.800	276.144
7792	7791	7851	1	120.000	292.880
7875	7839	7877	1	107.800	276.144
7788	7787	7848	1	110.700	313.800
7812	7811	7837	1	124.000	585.760
7834	7833	7835	1	109.100	644.336
7788	7787	7847	1	110.700	313.800
7875	7839	7876	1	107.800	276.144
7807	7806	7842	1	124.000	585.760
7816	7815	7826	1	124.000	585.760
7804	7803	7843	1	120.000	527.184
7839	7838	7840	1	112.700	488.273
7799	7800	7857	1	120.000	292.880
7815	7826	7825	1	109.500	418.400
7837	7838	7841	1	112.700	488.273
7809	7841	7838	1	111.100	527.184
7849	7788	7850	1	107.800	276.144
7835	7833	7836	1	109.100	644.336
7844	7785	7845	1	107.800	276.144
7797	7796	7854	1	120.000	292.880
7814	7813	7866	1	120.000	292.880
7878	7840	7880	1	107.800	276.144
7847	7787	7848	1	107.800	276.144
7787	7786	7803	1	116.000	418.400
7839	7838	7841	1	112.700	488.273
7811	7810	7864	1	122.260	502.080
7793	7792	7852	1	120.000	292.880
7838	7841	7882	1	110.700	313.800
7878	7840	7879	1	107.800	276.144
7809	7808	7863	1	120.000	292.880
7815	7814	7867	1	123.300	292.880
7831	7830	7870	1	120.000	292.880
7797	7799	7800	1	120.000	527.184
7885	7886	7887	1	107.200	433.462
7886	7887	7888	1	109.470	470.282
7887	7888	7889	1	109.500	418.400
7888	7889	7890	1	111.000	627.600
7889	7890	7891	1	120.000	585.760
7890	7891	7892	1	120.000	527.184
7891	7892	7893	1	120.000	527.184
7892	7893	7894	1	120.000	527.184
7893	7894	7895	1	120.000	527.184
7894	7895	7896	1	120.000	527.184
7895	7896	7897	1	120.000	527.184
7896	7897	7898	1	109.5	0.0
7896	7897	7899	1	120.000	527.184
7893	7894	7900	1	120.000	527.184
7892	7893	7901	1	120.000	527.184
7889	7890	7902	1	120.000	585.760
7885	7886	7903	1	116.000	418.400
7886	7903	7904	1	120.000	585.760
7903	7904	7905	1	120.000	527.184
7904	7905	7906	1	120.000	527.184
7905	7906	7907	1	124.000	585.760
7906	7907	7908	1	117.000	711.280
7907	7908	7909	1	124.000	585.760
7908	7909	7910	1	124.000	585.760
7909	7910	7911	1	124.000	585.760
7910	7911	7912	1	124.000	585.760
7911	7912	7913	1	124.000	585.760
7912	7913	7914	1	124.000	585.760
7913	7914	7915	1	117.000	711.280
7914	7915	7916	1	118.760	505.678
7915	7916	7917	1	124.000	585.760
7916	7917	7918	1	180.000	1255.200
7915	7916	7919	1	117.000	711.280
7916	7919	7920	1	124.000	585.760
7919	7920	7921	1	122.000	669.440
7920	7921	7922	1	180.000	1255.200
7919	7920	7923	1	122.000	669.440
7920	7923	7924	1	180.000	1255.200
7916	7919	7925	1	110.000	585.760
7914	7915	7926	1	124.000	585.760
7915	7926	7927	1	109.500	334.720
7926	7927	7928	1	120.000	585.760
7927	7928	7929	1	120.000	527.184
7928	7929	7930	1	120.000	527.184
7929	7930	7931	1	120.000	527.184
7926	7927	7932	1	120.000	585.760
7915	7926	7933	1	111.100	527.184
7926	7933	7934	1	109.500	418.400
7926	7933	7935	1	109.500	418.400
7926	7933	7936	1	109.500	418.400
7910	7911	7937	1	124.000	585.760
7911	7937	7938	1	111.100	527.184
7937	7938	7939	1	112.700	488.273
7937	7938	7940	1	112.700	488.273
7908	7909	7941	1	124.000	585.760
7905	7906	7942	1	120.000	527.184
7886	7903	7943	1	120.000	585.760
7886	7885	7944	1	109.500	292.880
7886	7885	7945	1	109.500	292.880
7886	7885	7946	1	109.500	292.880
7886	7887	7947	1	109.500	292.880
7886	7887	7948	1	109.500	292.880
7887	7888	7949	1	110.700	313.800
7887	7888	7950	1	110.700	313.800
7890	7891	7951	1	120.000	292.880
7891	7892	7952	1	120.000	292.880
7894	7895	7953	1	120.000	292.880
7895	7896	7954	1	120.000	292.880
7897	7898	7955	1	109.5	0.0
7897	7899	7956	1	120.000	292.880
7894	7900	7957	1	120.000	292.880
7893	7901	7958	1	120.000	292.880
7890	7902	7959	1	120.000	292.880
7903	7904	7960	1	120.000	292.880
7904	7905	7961	1	120.000	292.880
7906	7907	7962	1	123.300	292.880
7907	7908	7963	1	120.000	292.880
7909	7910	7964	1	122.260	502.080
7911	7912	7965	1	120.000	292.880
7912	7913	7966	1	120.000	292.880
7913	7914	7967	1	120.000	292.880
7927	7928	7968	1	120.000	292.880
7928	7929	7969	1	120.000	292.880
7929	7930	7970	1	120.000	292.880
7930	7931	7971	1	120.000	292.880
7927	7932	7972	1	120.000	292.880
7911	7937	7973	1	109.500	292.880
7911	7937	7974	1	109.500	292.880
7938	7939	7975	1	110.700	313.800
7938	7939	7976	1	110.700	313.800
7938	7939	7977	1	110.700	313.800
7938	7940	7978	1	110.700	313.800
7938	7940	7979	1	110.700	313.800
7938	7940	7980	1	110.700	313.800
7909	7941	7981	1	109.500	292.880
7909	7941	7982	1	109.500	292.880
7906	7942	7983	1	120.000	292.880
7903	7943	7984	1	120.000	292.880
7902	7901	7958	1	120.000	292.880
7906	7942	7943	1	120.000	527.184
7891	7890	7902	1	120.000	527.184
7938	7937	7974	1	110.700	313.800
7905	7904	7960	1	120.000	292.880
7942	7943	7984	1	120.000	292.880
7903	7943	7942	1	120.000	527.184
7930	7931	7932	1	120.000	527.184
7945	7885	7946	1	107.800	276.144
7898	7897	7899	1	109.5	0.0
7910	7909	7941	1	124.000	585.760
7938	7941	7981	1	110.700	313.800
7896	7895	7953	1	120.000	292.880
7932	7931	7971	1	120.000	292.880
7979	7940	7980	1	107.800	276.144
7921	7920	7923	1	118.760	505.678
7889	7888	7950	1	109.500	292.880
7889	7888	7949	1	109.500	292.880
7940	7938	7941	1	112.700	488.273
7981	7941	7982	1	107.800	276.144
7927	7932	7931	1	120.000	527.184
7917	7916	7919	1	122.000	669.440
7919	7925	7926	1	111.000	627.600
7908	7907	7962	1	120.000	292.880
7901	7902	7959	1	120.000	292.880
7893	7901	7902	1	120.000	527.184
7930	7929	7969	1	120.000	292.880
7894	7893	7901	1	120.000	527.184
7944	7885	7946	1	107.800	276.144
7913	7912	7965	1	120.000	292.880
7894	7900	7899	1	120.000	527.184
7928	7927	7932	1	120.000	527.184
7920	7919	7925	1	120.000	585.760
7900	7899	7956	1	120.000	292.880
7906	7905	7961	1	120.000	292.880
7934	7933	7936	1	109.100	644.336
7925	7926	7933	1	109.500	418.400
7943	7942	7983	1	120.000	292.880
7976	7939	7977	1	107.800	276.144
7890	7902	7901	1	120.000	527.184
7895	7894	7900	1	120.000	527.184
7938	7937	7973	1	110.700	313.800
7927	7926	7933	1	114.000	527.184
7929	7928	7968	1	120.000	292.880
7925	7926	7927	1	109.500	418.400
7931	7932	7972	1	120.000	292.880
7973	7937	7974	1	107.800	276.144
7892	7891	7951	1	120.000	292.880
7975	7939	7977	1	107.800	276.144
7888	7887	7948	1	110.700	313.800
7912	7911	7937	1	124.000	585.760
7934	7933	7935	1	109.100	644.336
7888	7887	7947	1	110.700	313.800
7975	7939	7976	1	107.800	276.144
7907	7906	7942	1	124.000	585.760
7916	7915	7926	1	124.000	585.760
7904	7903	7943	1	120.000	527.184
7939	7938	7940	1	112.700	488.273
7899	7900	7957	1	120.000	292.880
7915	7926	7925	1	109.500	418.400
7937	7938	7941	1	112.700	488.273
7909	7941	7938	1	111.100	527.184
7949	7888	7950	1	107.800	276.144
7935	7933	7936	1	109.100	644.336
7944	7885	7945	1	107.800	276.144
7897	7896	7954	1	120.000	292.880
7914	7913	7966	1	120.000	292.880
7978	7940	7980	1	107.800	276.144
7947	7887	7948	1	107.800	276.144
7887	7886	7903	1	116.000	418.400
7939	7938	7941	1	112.700	488.273
7911	7910	7964	1	122.260	502.080
7893	7892	7952	1	120.000	292.880
7938	7941	7982	1	110.700	313.800
7978	7940	7979	1	107.800	276.144
7909	7908	7963	1	120.000	292.880
7915	7914	7967	1	123.300	292.880
7931	7930	7970	1	120.000	292.880
7897	7899	7900	1	120.000	527.184
7985	7986	7987	1	107.200	433.462
7986	7987	7988	1	109.470	470.282
7987	7988	7989	1	109.500	418.400
7988	7989	7990	1	111.000	627.600
7989	7990	7991	1	120.000	585.760
7990	7991	7992	1	120.000	527.184
7991	7992	7993	1	120.000	527.184
7992	7993	7994	1	120.000	527.184
7993	7994	7995	1	120.000	527.184
7994	7995	7996	1	120.000	527.184
7995	7996	7997	1	120.000	527.184
7996	7997	7998	1	109.5	0.0
7996	7997	7999	1	120.000	527.184
7993	7994	8000	1	120.000	527.184
7992	7993	8001	1	120.000	527.184
7989	7990	8002	1	120.000	585.760
7985	7986	8003	1	116.000	418.400
7986	8003	8004	1	120.000	585.760
8003	8004	8005	1	120.000	527.184
8004	8005	8006	1	120.000	527.184
8005	8006	8007	1	124.000	585.760
8006	8007	8008	1	117.000	711.280
8007	8008	8009	1	124.000	585.760
8008	8009	8010	1	124.000	585.760
8009	8010	8011	1	124.000	585.760
8010	8011	8012	1	124.000	585.760
8011	8012	8013	1	124.000	585.760
8012	8013	8014	1	124.000	585.760
8013	8014	8015	1	117.000	711.280
8014	8015	8016	1	118.760	505.678
8015	8016	8017	1	124.000	585.760
8016	8017	8018	1	180.000	1255.200
8015	8016	8019	1	117.000	711.280
8016	8019	8020	1	124.000	585.760
8019	8020	8021	1	122.000	669.440
8020	8021	8022	1	180.000	1255.200
8019	8020	8023	1	122.000	669.440
8020	8023	8024	1	180.000	1255.200
8016	8019	8025	1	110.000	585.760
8014	8015	8026	1	124.000	585.760
8015	8026	8027	1	109.500	334.720
8026	8027	8028	1	120.000	585.760
8027	8028	8029	1	120.000	527.184
8028	8029	8030	1	120.000	527.184
8029	8030	8031	1	120.000	527.184
8026	8027	8032	1	120.000	585.760
8015	8026	8033	1	111.100	527.184
8026	8033	8034	1	109.500	418.400
8026	8033	8035	1	109.500	418.400
8026	8033	8036	1	109.500	418.400
8010	8011	8037	1	124.000	585.760
8011	8037	8038	1	111.100	527.184
8037	8038	8039	1	112.700	488.273
8037	8038	8040	1	112.700	488.273
8008	8009	8041	1	124.000	585.760
8005	8006	8042	1	120.000	527.184
7986	8003	8043	1	120.000	585.760
7986	7985	8044	1	109.500	292.880
7986	7985	8045	1	109.500	292.880
7986	7985	8046	1	109.500	292.880
7986	7987	8047	1	109.500	292.880
7986	7987	8048	1	109.500	292.880
7987	7988	8049	1	110.700	313.800
7987	7988	8050	1	110.700	313.800
7990	7991	8051	1	120.000	292.880
7991	7992	8052	1	120.000	292.880
7994	7995	8053	1	120.000	292.880
7995	7996	8054	1	120.000	292.880
7997	7998	8055	1	109.5	0.0
7997	7999	8056	1	120.000	292.880
7994	8000	8057	1	120.000	292.880
7993	8001	8058	1	120.000	292.880
7990	8002	8059	1	120.000	292.880
8003	8004	8060	1	120.000	292.880
8004	8005	8061	1	120.000	292.880
8006	8007	8062	1	123.300	292.880
8007	8008	8063	1	120.000	292.880
8009	8010	8064	1	122.260	502.080
8011	8012	8065	1	120.000	292.880
8012	8013	8066	1	120.000	292.880
8013	8014	8067	1	120.000	292.880
8027	8028	8068	1	120.000	292.880
8028	8029	8069	1	120.000	292.880
8029	8030	8070	1	120.000	292.880
8030	8031	8071	1	120.000	292.880
8027	8032	8072	1	120.000	292.880
8011	8037	8073	1	109.500	292.880
8011	8037	8074	1	109.500	292.880
8038	8039	8075	1	110.700	313.800
8038	8039	8076	1	110.700	313.800
8038	8039	8077	1	110.700	313.800
8038	8040	8078	1	110.700	313.800
8038	8040	8079	1	110.700	313.800
8038	8040	8080	1	110.700	313.800
8009	8041	8081	1	109.500	292.880
8009	8041	8082	1	109.500	292.880
8006	8042	8083	1	120.000	292.880
8003	8043	8084	1	120.000	292.880
8002	8001	8058	1	120.000	292.880
8006	8042	8043	1	120.000	527.184
7991	7990	8002	1	120.000	527.184
8038	8037	8074	1	110.700	313.800
8005	8004	8060	1	120.000	292.880
8042	8043	8084	1	120.000	292.880
8003	8043	8042	1	120.000	527.184
8030	8031	8032	1	120.000	527.184
8045	7985	8046	1	107.800	276.144
7998	7997	7999	1	109.5	0.0
8010	8009	8041	1	124.000	585.760
8038	8041	8081	1	110.700	313.800
7996	7995	8053	1	120.000	292.880
8032	8031	8071	1	120.000	292.880
8079	8040	8080	1	107.800	276.144
8021	8020	8023	1	118.760	505.678
7989	7988	8050	1	109.500	292.880
7989	7988	8049	1	109.500	292.880
8040	8038	8041	1	112.700	488.273
8081	8041	8082	1	107.800	276.144
8027	8032	8031	1	120.000	527.184
8017	8016	8019	1	122.000	669.440
8019	8025	8026	1	111.000	627.600
8008	8007	8062	1	120.000	292.880
8001	8002	8059	1	120.000	292.880
7993	8001	8002	1	120.000	527.184
8030	8029	8069	1	120.000	292.880
7994	7993	8001	1	120.000	527.184
8044	7985	8046	1	107.800	276.144
8013	8012	8065	1	120.000	292.880
7994	8000	7999	1	120.000	527.184
8028	8027	8032	1	120.000	527.184
8020	8019	8025	1	120.000	585.760
8000	7999	8056	1	120.000	292.880
8006	8005	8061	1	120.000	292.880
8034	8033	8036	1	109.100	644.336
8025	8026	8033	1	109.500	418.400
8043	8042	8083	1	120.000	292.880
8076	8039	8077	1	107.800	276.144
7990	8002	8001	1	120.000	527.184
7995	7994	8000	1	120.000	527.184
8038	8037	8073	1	110.700	313.800
8027	8026	8033	1	114.000	527.184
8029	8028	8068	1	120.000	292.880
8025	8026	8027	1	109.500	418.400
8031	8032	8072	1	120.000	292.880
8073	8037	8074	1	107.800	276.144
7992	7991	8051	1	120.000	292.880
8075	8039	8077	1	107.800	276.144
7988	7987	8048	1	110.700	313.800
8012	8011	8037	1	124.000	585.760
8034	8033	8035	1	109.100	644.336
7988	7987	8047	1	110.700	313.800
8075	8039	8076	1	107.800	276.144
8007	8006	8042	1	124.000	585.760
8016	8015	8026	1	124.000	585.760
8004	8003	8043	1	120.000	527.184
8039	8038	8040	1	112.700	488.273
7999	8000	8057	1	120.000	292.880
8015	8026	8025	1	109.500	418.400
8037	8038	8041	1	112.700	488.273
8009	8041	8038	1	111.100	527.184
8049	7988	8050	1	107.800	276.144
8035	8033	8036	1	109.100	644.336
8044	7985	8045	1	107.800	276.144
7997	7996	8054	1	120.000	292.880
8014	8013	8066	1	120.000	292.880
8078	8040	8080	1	107.800	276.144
8047	7987	8048	1	107.800	276.144
7987	7986	8003	1	116.000	418.400
8039	8038	8041	1	112.700	488.273
8011	8010	8064	1	122.260	502.080
7993	7992	8052	1	120.000	292.880
8038	8041	8082	1	110.700	313.800
8078	8040	8079	1	107.800	276.144
8009	8008	8063	1	120.000	292.880
8015	8014	8067	1	123.300	292.880
8031	8030	8070	1	120.000	292.880
7997	7999	8000	1	120.000	527.184
8085	8086	8087	1	107.200	433.462
8086	8087	8088	1	109.470	470.282
8087	8088	8089	1	109.500	418.400
8088	8089	8090	1	111.000	627.600
8089	8090	8091	1	120.000	585.760
8090	8091	8092	1	120.000	527.184
8091	8092	8093	1	120.000	527.184
8092	8093	8094	1	120.000	527.184
8093	8094	8095	1	120.000	527.184
8094	8095	8096	1	120.000	527.184
8095	8096	8097	1	120.000	527.184
8096	8097	8098	1	109.5	0.0
8096	8097	8099	1	120.000	527.184
8093	8094	8100	1	120.000	527.184
8092	8093	8101	1	120.000	527.184
8089	8090	8102	1	120.000	585.760
8085	8086	8103	1	116.000	418.400
8086	8103	8104	1	120.000	585.760
8103	8104	8105	1	120.000	527.184
8104	8105	8106	1	120.000	527.184
8105	8106	8107	1	124.000	585.760
8106	8107	8108	1	117.000	711.280
8107	8108	8109	1	124.000	585.760
8108	8109	8110	1	124.000	585.760
8109	8110	8111	1	124.000	585.760
8110	8111	8112	1	124.000	585.760
8111	8112	8113	1	124.000	585.760
8112	8113	8114	1	124.000	585.760
8113	8114	8115	1	117.000	711.280
8114	8115	8116	1	118.760	505.678
8115	8116	8117	1	124.000	585.760
8116	8117	8118	1	180.000	1255.200
8115	8116	8119	1	117.000	711.280
8116	8119	8120	1	124.000	585.760
8119	8120	8121	1	122.000	669.440
8120	8121	8122	1	180.000	1255.200
8119	8120	8123	1	122.000	669.440
8120	8123	8124	1	180.000	1255.200
8116	8119	8125	1	110.000	585.760
8114	8115	8126	1	124.000	585.760
8115	8126	8127	1	109.500	334.720
8126	8127	8128	1	120.000	585.760
8127	8128	8129	1	120.000	527.184
8128	8129	8130	1	120.000	527.184
8129	8130	8131	1	120.000	527.184
8126	8127	8132	1	120.000	585.760
8115	8126	8133	1	111.100	527.184
8126	8133	8134	1	109.500	418.400
8126	8133	8135	1	109.500	418.400
8126	8133	8136	1	109.500	418.400
8110	8111	8137	1	124.000	585.760
8111	8137	8138	1	111.100	527.184
8137	8138	8139	1	112.700	488.273
8137	8138	8140	1	112.700	488.273
8108	8109	8141	1	124.000	585.760
8105	8106	8142	1	120.000	527.184
8086	8103	8143	1	120.000	585.760
8086	8085	8144	1	109.500	292.880
8086	8085	8145	1	109.500	292.880
8086	8085	8146	1	109.500	292.880
8086	8087	8147	1	109.500	292.880
8086	8087	8148	1	109.500	292.880
8087	8088	8149	1	110.700	313.800
8087	8088	8150	1	110.700	313.800
8090	8091	8151	1	120.000	292.880
8091	8092	8152	1	120.000	292.880
8094	8095	8153	1	120.000	292.880
8095	8096	8154	1	120.000	292.880
8097	8098	8155	1	109.5	0.0
8097	8099	8156	1	120.000	292.880
8094	8100	8157	1	120.000	292.880
8093	8101	8158	1	120.000	292.880
8090	8102	8159	1	120.000	292.880
8103	8104	8160	1	120.000	292.880
8104	8105	8161	1	120.000	292.880
8106	8107	8162	1	123.300	292.880
8107	8108	8163	1	120.000	292.880
8109	8110	8164	1	122.260	502.080
8111	8112	8165	1	120.000	292.880
8112	8113	8166	1	120.000	292.880
8113	8114	8167	1	120.000	292.880
8127	8128	8168	1	120.000	292.880
8128	8129	8169	1	120.000	292.880
8129	8130	8170	1	120.000	292.880
8130	8131	8171	1	120.000	292.880
8127	8132	8172	1	120.000	292.880
8111	8137	8173	1	109.500	292.880
8111	8137	8174	1	109.500	292.880
8138	8139	8175	1	110.700	313.800
8138	8139	8176	1	110.700	313.800
8138	8139	8177	1	110.700	313.800
8138	8140	8178	1	110.700	313.800
8138	8140	8179	1	110.700	313.800
8138	8140	8180	1	110.700	313.800
8109	8141	8181	1	109.500	292.880
8109	8141	8182	1	109.500	292.880
8106	8142	8183	1	120.000	292.880
8103	8143	8184	1	120.000	292.880
8102	8101	8158	1	120.000	292.880
8106	8142	8143	1	120.000	527.184
8091	8090	8102	1	120.000	527.184
8138	8137	8174	1	110.700	313.800
8105	8104	8160	1	120.000	292.880
8142	8143	8184	1	120.000	292.880
8103	8143	8142	1	120.000	527.184
8130	8131	8132	1	120.000	527.184
8145	8085	8146	1	107.800	276.144
8098	8097	8099	1	109.5	0.0
8110	8109	8141	1	124.000	585.760
8138	8141	8181	1	110.700	313.800
8096	8095	8153	1	120.000	292.880
8132	8131	8171	1	120.000	292.880
8179	8140	8180	1	107.800	276.144
8121	8120	8123	1	118.760	505.678
8089	8088	8150	1	109.500	292.880
8089	8088	8149	1	109.500	292.880
8140	8138	8141	1	112.700	488.273
8181	8141	8182	1	107.800	276.144
8127	8132	8131	1	120.000	527.184
8117	8116	8119	1	122.000	669.440
8119	8125	8126	1	111.000	627.600
8108	8107	8162	1	120.000	292.880
8101	8102	8159	1	120.000	292.880
8093	8101	8102	1	120.000	527.184
8130	8129	8169	1	120.000	292.880
8094	8093	8101	1	120.000	527.184
8144	8085	8146	1	107.800	276.144
8113	8112	8165	1	120.000	292.880
8094	8100	8099	1	120.000	527.184
8128	8127	8132	1	120.000	527.184
8120	8119	8125	1	120.000	585.760
8100	8099	8156	1	120.000	292.880
8106	8105	8161	1	120.000	292.880
8134	8133	8136	1	109.100	644.336
8125	8126	8133	1	109.500	418.400
8143	8142	8183	1	120.000	292.880
8176	8139	8177	1	107.800	276.144
8090	8102	8101	1	120.000	527.184
8095	8094	8100	1	120.000	527.184
8138	8137	8173	1	110.700	313.800
8127	8126	8133	1	114.000	527.184
8129	8128	8168	1	120.000	292.880
8125	8126	8127	1	109.500	418.400
8131	8132	8172	1	120.000	292.880
8173	8137	8174	1	107.800	276.144
8092	8091	8151	1	120.000	292.880
8175	8139	8177	1	107.800	276.144
8088	8087	8148	1	110.700	313.800
8112	8111	8137	1	124.000	585.760
8134	8133	8135	1	109.100	644.336
8088	8087	8147	1	110.700	313.800
8175	8139	8176	1	107.800	276.144
8107	8106	8142	1	124.000	585.760
8116	8115	8126	1	124.000	585.760
8104	8103	8143	1	120.000	527.184
8139	8138	8140	1	112.700	488.273
8099	8100	8157	1	120.000	292.880
8115	8126	8125	1	109.500	418.400
8137	8138	8141	1	112.700	488.273
8109	8141	8138	1	111.100	527.184
8149	8088	8150	1	107.800	276.144
8135	8133	8136	1	109.100	644.336
8144	8085	8145	1	107.800	276.144
8097	8096	8154	1	120.000	292.880
8114	8113	8166	1	120.000	292.880
8178	8140	8180	1	107.800	276.144
8147	8087	8148	1	107.800	276.144
8087	8086	8103	1	116.000	418.400
8139	8138	8141	1	112.700	488.273
8111	8110	8164	1	122.260	502.080
8093	8092	8152	1	120.000	292.880
8138	8141	8182	1	110.700	313.800
8178	8140	8179	1	107.800	276.144
8109	8108	8163	1	120.000	292.880
8115	8114	8167	1	123.300	292.880
8131	8130	8170	1	120.000	292.880
8097	8099	8100	1	120.000	527.184
8185	8186	8187	1	107.200	433.462
8186	8187	8188	1	109.470	470.282
8187	8188	8189	1	109.500	418.400
8188	8189	8190	1	111.000	627.600
8189	8190	8191	1	120.000	585.760
8190	8191	8192	1	120.000	527.184
8191	8192	8193	1	120.000	527.184
8192	8193	8194	1	120.000	527.184
8193	8194	8195	1	120.000	527.184
8194	8195	8196	1	120.000	527.184
8195	8196	8197	1	120.000	527.184
8196	8197	8198	1	109.5	0.0
8196	8197	8199	1	120.000	527.184
8193	8194	8200	1	120.000	527.184
8192	8193	8201	1	120.000	527.184
8189	8190	8202	1	120.000	585.760
8185	8186	8203	1	116.000	418.400
8186	8203	8204	1	120.000	585.760
8203	8204	8205	1	120.000	527.184
8204	8205	8206	1	120.000	527.184
8205	8206	8207	1	124.000	585.760
8206	8207	8208	1	117.000	711.280
8207	8208	8209	1	124.000	585.760
8208	8209	8210	1	124.000	585.760
8209	8210	8211	1	124.000	585.760
8210	8211	8212	1	124.000	585.760
8211	8212	8213	1	124.000	585.760
8212	8213	8214	1	124.000	585.760
8213	8214	8215	1	117.000	711.280
8214	8215	8216	1	118.760	505.678
8215	8216	8217	1	124.000	585.760
8216	8217	8218	1	180.000	1255.200
8215	8216	8219	1	117.000	711.280
8216	8219	8220	1	124.000	585.760
8219	8220	8221	1	122.000	669.440
8220	8221	8222	1	180.000	1255.200
8219	8220	8223	1	122.000	669.440
8220	8223	8224	1	180.000	1255.200
8216	8219	8225	1	110.000	585.760
8214	8215	8226	1	124.000	585.760
8215	8226	8227	1	109.500	334.720
8226	8227	8228	1	120.000	585.760
8227	8228	8229	1	120.000	527.184
8228	8229	8230	1	120.000	527.184
8229	8230	8231	1	120.000	527.184
8226	8227	8232	1	120.000	585.760
8215	8226	8233	1	111.100	527.184
8226	8233	8234	1	109.500	418.400
8226	8233	8235	1	109.500	418.400
8226	8233	8236	1	109.500	418.400
8210	8211	8237	1	124.000	585.760
8211	8237	8238	1	111.100	527.184
8237	8238	8239	1	112.700	488.273
8237	8238	8240	1	112.700	488.273
8208	8209	8241	1	124.000	585.760
8205	8206	8242	1	120.000	527.184
8186	8203	8243	1	120.000	585.760
8186	8185	8244	1	109.500	292.880
8186	8185	8245	1	109.500	292.880
8186	8185	8246	1	109.500	292.880
8186	8187	8247	1	109.500	292.880
8186	8187	8248	1	109.500	292.880
8187	8188	8249	1	110.700	313.800
8187	8188	8250	1	110.700	313.800
8190	8191	8251	1	120.000	292.880
8191	8192	8252	1	120.000	292.880
8194	8195	8253	1	120.000	292.880
8195	8196	8254	1	120.000	292.880
8197	8198	8255	1	109.5	0.0
8197	8199	8256	1	120.000	292.880
8194	8200	8257	1	120.000	292.880
8193	8201	8258	1	120.000	292.880
8190	8202	8259	1	120.000	292.880
8203	8204	8260	1	120.000	292.880
8204	8205	8261	1	120.000	292.880
8206	8207	8262	1	123.300	292.880
8207	8208	8263	1	120.000	292.880
8209	8210	8264	1	122.260	502.080
8211	8212	8265	1	120.000	292.880
8212	8213	8266	1	120.000	292.880
8213	8214	8267	1	120.000	292.880
8227	8228	8268	1	120.000	292.880
8228	8229	8269	1	120.000	292.880
8229	8230	8270	1	120.000	292.880
8230	8231	8271	1	120.000	292.880
8227	8232	8272	1	120.000	292.880
8211	8237	8273	1	109.500	292.880
8211	8237	8274	1	109.500	292.880
8238	8239	8275	1	110.700	313.800
8238	8239	8276	1	110.700	313.800
8238	8239	8277	1	110.700	313.800
8238	8240	8278	1	110.700	313.800
8238	8240	8279	1	110.700	313.800
8238	8240	8280	1	110.700	313.800
8209	8241	8281	1	109.500	292.880
8209	8241	8282	1	109.500	292.880
8206	8242	8283	1	120.000	292.880
8203	8243	8284	1	120.000	292.880
8202	8201	8258	1	120.000	292.880
8206	8242	8243	1	120.000	527.184
8191	8190	8202	1	120.000	527.184
8238	8237	8274	1	110.700	313.800
8205	8204	8260	1	120.000	292.880
8242	8243	8284	1	120.000	292.880
8203	8243	8242	1	120.000	527.184
8230	8231	8232	1	120.000	527.184
8245	8185	8246	1	107.800	276.144
8198	8197	8199	1	109.5	0.0
8210	8209	8241	1	124.000	585.760
8238	8241	8281	1	110.700	313.800
8196	8195	8253	1	120.000	292.880
8232	8231	8271	1	120.000	292.880
8279	8240	8280	1	107.800	276.144
8221	8220	8223	1	118.760	505.678
8189	8188	8250	1	109.500	292.880
8189	8188	8249	1	109.500	292.880
8240	8238	8241	1	112.700	488.273
8281	8241	8282	1	107.800	276.144
8227	8232	8231	1	120.000	527.184
8217	8216	8219	1	122.000	669.440
8219	8225	8226	1	111.000	627.600
8208	8207	8262	1	120.000	292.880
8201	8202	8259	1	120.000	292.880
8193	8201	8202	1	120.000	527.184
8230	8229	8269	1	120.000	292.880
8194	8193	8201	1	120.000	527.184
8244	8185	8246	1	107.800	276.144
8213	8212	8265	1	120.000	292.880
8194	8200	8199	1	120.000	527.184
8228	8227	8232	1	120.000	527.184
8220	8219	8225	1	120.000	585.760
8200	8199	8256	1	120.000	292.880
8206	8205	8261	1	120.000	292.880
8234	8233	8236	1	109.100	644.336
8225	8226	8233	1	109.500	418.400
8243	8242	8283	1	120.000	292.880
8276	8239	8277	1	107.800	276.144
8190	8202	8201	1	120.000	527.184
8195	8194	8200	1	120.000	527.184
8238	8237	8273	1	110.700	313.800
8227	8226	8233	1	114.000	527.184
8229	8228	8268	1	120.000	292.880
8225	8226	8227	1	109.500	418.400
8231	8232	8272	1	120.000	292.880
8273	8237	8274	1	107.800	276.144
8192	8191	8251	1	120.000	292.880
8275	8239	8277	1	107.800	276.144
8188	8187	8248	1	110.700	313.800
8212	8211	8237	1	124.000	585.760
8234	8233	8235	1	109.100	644.336
8188	8187	8247	1	110.700	313.800
8275	8239	8276	1	107.800	276.144
8207	8206	8242	1	124.000	585.760
8216	8215	8226	1	124.000	585.760
8204	8203	8243	1	120.000	527.184
8239	8238	8240	1	112.700	488.273
8199	8200	8257	1	120.000	292.880
8215	8226	8225	1	109.500	418.400
8237	8238	8241	1	112.700	488.273
8209	8241	8238	1	111.100	527.184
8249	8188	8250	1	107.800	276.144
8235	8233	8236	1	109.100	644.336
8244	8185	8245	1	107.800	276.144
8197	8196	8254	1	120.000	292.880
8214	8213	8266	1	120.000	292.880
8278	8240	8280	1	107.800	276.144
8247	8187	8248	1	107.800	276.144
8187	8186	8203	1	116.000	418.400
8239	8238	8241	1	112.700	488.273
8211	8210	8264	1	122.260	502.080
8193	8192	8252	1	120.000	292.880
8238	8241	8282	1	110.700	313.800
8278	8240	8279	1	107.800	276.144
8209	8208	8263	1	120.000	292.880
8215	8214	8267	1	123.300	292.880
8231	8230	8270	1	120.000	292.880
8197	8199	8200	1	120.000	527.184
8285	8286	8287	1	107.200	433.462
8286	8287	8288	1	109.470	470.282
8287	8288	8289	1	109.500	418.400
8288	8289	8290	1	111.000	627.600
8289	8290	8291	1	120.000	585.760
8290	8291	8292	1	120.000	527.184
8291	8292	8293	1	120.000	527.184
8292	8293	8294	1	120.000	527.184
8293	8294	8295	1	120.000	527.184
8294	8295	8296	1	120.000	527.184
8295	8296	8297	1	120.000	527.184
8296	8297	8298	1	109.5	0.0
8296	8297	8299	1	120.000	527.184
8293	8294	8300	1	120.000	527.184
8292	8293	8301	1	120.000	527.184
8289	8290	8302	1	120.000	585.760
8285	8286	8303	1	116.000	418.400
8286	8303	8304	1	120.000	585.760
8303	8304	8305	1	120.000	527.184
8304	8305	8306	1	120.000	527.184
8305	8306	8307	1	124.000	585.760
8306	8307	8308	1	117.000	711.280
8307	8308	8309	1	124.000	585.760
8308	8309	8310	1	124.000	585.760
8309	8310	8311	1	124.000	585.760
8310	8311	8312	1	124.000	585.760
8311	8312	8313	1	124.000	585.760
8312	8313	8314	1	124.000	585.760
8313	8314	8315	1	117.000	711.280
8314	8315	8316	1	118.760	505.678
8315	8316	8317	1	124.000	585.760
8316	8317	8318	1	180.000	1255.200
8315	8316	8319	1	117.000	711.280
8316	8319	8320	1	124.000	585.760
8319	8320	8321	1	122.000	669.440
8320	8321	8322	1	180.000	1255.200
8319	8320	8323	1	122.000	669.440
8320	8323	8324	1	180.000	1255.200
8316	8319	8325	1	110.000	585.760
8314	8315	8326	1	124.000	585.760
8315	8326	8327	1	109.500	334.720
8326	8327	8328	1	120.000	585.760
8327	8328	8329	1	120.000	527.184
8328	8329	8330	1	120.000	527.184
8329	8330	8331	1	120.000	527.184
8326	8327	8332	1	120.000	585.760
8315	8326	8333	1	111.100	527.184
8326	8333	8334	1	109.500	418.400
8326	8333	8335	1	109.500	418.400
8326	8333	8336	1	109.500	418.400
8310	8311	8337	1	124.000	585.760
8311	8337	8338	1	111.100	527.184
8337	8338	8339	1	112.700	488.273
8337	8338	8340	1	112.700	488.273
8308	8309	8341	1	124.000	585.760
8305	8306	8342	1	120.000	527.184
8286	8303	8343	1	120.000	585.760
8286	8285	8344	1	109.500	292.880
8286	8285	8345	1	109.500	292.880
8286	8285	8346	1	109.500	292.880
8286	8287	8347	1	109.500	292.880
8286	8287	8348	1	109.500	292.880
8287	8288	8349	1	110.700	313.800
8287	8288	8350	1	110.700	313.800
8290	8291	8351	1	120.000	292.880
8291	8292	8352	1	120.000	292.880
8294	8295	8353	1	120.000	292.880
8295	8296	8354	1	120.000	292.880
8297	8298	8355	1	109.5	0.0
8297	8299	8356	1	120.000	292.880
8294	8300	8357	1	120.000	292.880
8293	8301	8358	1	120.000	292.880
8290	8302	8359	1	120.000	292.880
8303	8304	8360	1	120.000	292.880
8304	8305	8361	1	120.000	292.880
8306	8307	8362	1	123.300	292.880
8307	8308	8363	1	120.000	292.880
8309	8310	8364	1	122.260	502.080
8311	8312	8365	1	120.000	292.880
8312	8313	8366	1	120.000	292.880
8313	8314	8367	1	120.000	292.880
8327	8328	8368	1	120.000	292.880
8328	8329	8369	1	120.000	292.880
8329	8330	8370	1	120.000	292.880
8330	8331	8371	1	120.000	292.880
8327	8332	8372	1	120.000	292.880
8311	8337	8373	1	109.500	292.880
8311	8337	8374	1	109.500	292.880
8338	8339	8375	1	110.700	313.800
8338	8339	8376	1	110.700	313.800
8338	8339	8377	1	110.700	313.800
8338	8340	8378	1	110.700	313.800
8338	8340	8379	1	110.700	313.800
8338	8340	8380	1	110.700	313.800
8309	8341	8381	1	109.500	292.880
8309	8341	8382	1	109.500	292.880
8306	8342	8383	1	120.000	292.880
8303	8343	8384	1	120.000	292.880
8302	8301	8358	1	120.000	292.880
8306	8342	8343	1	120.000	527.184
8291	8290	8302	1	120.000	527.184
8338	8337	8374	1	110.700	313.800
8305	8304	8360	1	120.000	292.880
8342	8343	8384	1	120.000	292.880
8303	8343	8342	1	120.000	527.184
8330	8331	8332	1	120.000	527.184
8345	8285	8346	1	107.800	276.144
8298	8297	8299	1	109.5	0.0
8310	8309	8341	1	124.000	585.760
8338	8341	8381	1	110.700	313.800
8296	8295	8353	1	120.000	292.880
8332	8331	8371	1	120.000	292.880
8379	8340	8380	1	107.800	276.144
8321	8320	8323	1	118.760	505.678
8289	8288	8350	1	109.500	292.880
8289	8288	8349	1	109.500	292.880
8340	8338	8341	1	112.700	488.273
8381	8341	8382	1	107.800	276.144
8327	8332	8331	1	120.000	527.184
8317	8316	8319	1	122.000	669.440
8319	8325	8326	1	111.000	627.600
8308	8307	8362	1	120.000	292.880
8301	8302	8359	1	120.000	292.880
8293	8301	8302	1	120.000	527.184
8330	8329	8369	1	120.000	292.880
8294	8293	8301	1	120.000	527.184
8344	8285	8346	1	107.800	276.144
8313	8312	8365	1	120.000	292.880
8294	8300	8299	1	120.000	527.184
8328	8327	8332	1	120.000	527.184
8320	8319	8325	1	120.000	585.760
8300	8299	8356	1	120.000	292.880
8306	8305	8361	1	120.000	292.880
8334	8333	8336	1	109.100	644.336
8325	8326	8333	1	109.500	418.400
8343	8342	8383	1	120.000	292.880
8376	8339	8377	1	107.800	276.144
8290	8302	8301	1	120.000	527.184
8295	8294	8300	1	120.000	527.184
8338	8337	8373	1	110.700	313.800
8327	8326	8333	1	114.000	527.184
8329	8328	8368	1	120.000	292.880
8325	8326	8327	1	109.500	418.400
8331	8332	8372	1	120.000	292.880
8373	8337	8374	1	107.800	276.144
8292	8291	8351	1	120.000	292.880
8375	8339	8377	1	107.800	276.144
8288	8287	8348	1	110.700	313.800
8312	8311	8337	1	124.000	585.760
8334	8333	8335	1	109.100	644.336
8288	8287	8347	1	110.700	313.800
8375	8339	8376	1	107.800	276.144
8307	8306	8342	1	124.000	585.760
8316	8315	8326	1	124.000	585.760
8304	8303	8343	1	120.000	527.184
8339	8338	8340	1	112.700	488.273
8299	8300	8357	1	120.000	292.880
8315	8326	8325	1	109.500	418.400
8337	8338	8341	1	112.700	488.273
8309	8341	8338	1	111.100	527.184
8349	8288	8350	1	107.800	276.144
8335	8333	8336	1	109.100	644.336
8344	8285	8345	1	107.800	276.144
8297	8296	8354	1	120.000	292.880
8314	8313	8366	1	120.000	292.880
8378	8340	8380	1	107.800	276.144
8347	8287	8348	1	107.800	276.144
8287	8286	8303	1	116.000	418.400
8339	8338	8341	1	112.700	488.273
8311	8310	8364	1	122.260	502.080
8293	8292	8352	1	120.000	292.880
8338	8341	8382	1	110.700	313.800
8378	8340	8379	1	107.800	276.144
8309	8308	8363	1	120.000	292.880
8315	8314	8367	1	123.300	292.880
8331	8330	8370	1	120.000	292.880
8297	8299	8300	1	120.000	527.184
2	1997	1999	1	110.0	502.08
2	1997	1996	1	110.0	502.08
1	2	1997	1	180.0	167.36
30	2097	2099	1	110.0	502.08
30	2097	2096	1	110.0	502.08
29	30	2097	1	180.0	167.36
58	2197	2199	1	110.0	502.08
58	2197	2196	1	110.0	502.08
57	58	2197	1	180.0	167.36
86	2297	2299	1	110.0	502.08
86	2297	2296	1	110.0	502.08
85	86	2297	1	180.0	167.36
114	2397	2399	1	110.0	502.08
114	2397	2396	1	110.0	502.08
113	114	2397	1	180.0	167.36
142	2497	2499	1	110.0	502.08
142	2497	2496	1	110.0	502.08
141	142	2497	1	180.0	167.36
170	2597	2599	1	110.0	502.08
170	2597	2596	1	110.0	502.08
169	170	2597	1	180.0	167.36
198	2697	2699	1	110.0	502.08
198	2697	2696	1	110.0	502.08
197	198	2697	1	180.0	167.36
226	2797	2799	1	110.0	502.08
226	2797	2796	1	110.0	502.08
225	226	2797	1	180.0	167.36
254	2897	2899	1	110.0	502.08
254	2897	2896	1	110.0	502.08
253	254	2897	1	180.0	167.36
282	2997	2999	1	110.0	502.08
282	2997	2996	1	110.0	502.08
281	282	2997	1	180.0	167.36
310	3097	3099	1	110.0	502.08
310	3097	3096	1	110.0	502.08
309	310	3097	1	180.0	167.36
338	3197	3199	1	110.0	502.08
338	3197	3196	1	110.0	502.08
337	338	3197	1	180.0	167.36
366	3297	3299	1	110.0	502.08
366	3297	3296	1	110.0	502.08
365	366	3297	1	180.0	167.36
394	3397	3399	1	110.0	502.08
394	3397	3396	1	110.0	502.08
393	394	3397	1	180.0	167.36
422	3497	3499	1	110.0	502.08
422	3497	3496	1	110.0	502.08
421	422	3497	1	180.0	167.36
450	3597	3599	1	110.0	502.08
450	3597	3596	1	110.0	502.08
449	450	3597	1	180.0	167.36
478	3697	3699	1	110.0	502.08
478	3697	3696	1	110.0	502.08
477	478	3697	1	180.0	167.36
506	3797	3799	1	110.0	502.08
506	3797	3796	1	110.0	502.08
505	506	3797	1	180.0	167.36
534	3897	3899	1	110.0	502.08
534	3897	3896	1	110.0	502.08
533	534	3897	1	180.0	167.36
562	3997	3999	1	110.0	502.08
562	3997	3996	1	110.0	502.08
561	562	3997	1	180.0	167.36
590	4097	4099	1	110.0	502.08
590	4097	4096	1	110.0	502.08
589	590	4097	1	180.0	167.36
618	4197	4199	1	110.0	502.08
618	4197	4196	1	110.0	502.08
617	618	4197	1	180.0	167.36
646	4297	4299	1	110.0	502.08
646	4297	4296	1	110.0	502.08
645	646	4297	1	180.0	167.36
674	4397	4399	1	110.0	502.08
674	4397	4396	1	110.0	502.08
673	674	4397	1	180.0	167.36
702	4497	4499	1	110.0	502.08
702	4497	4496	1	110.0	502.08
701	702	4497	1	180.0	167.36
730	4597	4599	1	110.0	502.08
730	4597	4596	1	110.0	502.08
729	730	4597	1	180.0	167.36
758	4697	4699	1	110.0	502.08
758	4697	4696	1	110.0	502.08
757	758	4697	1	180.0	167.36
786	4797	4799	1	110.0	502.08
786	4797	4796	1	110.0	502.08
785	786	4797	1	180.0	167.36
814	4897	4899	1	110.0	502.08
814	4897	4896	1	110.0	502.08
813	814	4897	1	180.0	167.36
842	4997	4999	1	110.0	502.08
842	4997	4996	1	110.0	502.08
841	842	4997	1	180.0	167.36
870	5097	5099	1	110.0	502.08
870	5097	5096	1	110.0	502.08
869	870	5097	1	180.0	167.36
898	5197	5199	1	110.0	502.08
898	5197	5196	1	110.0	502.08
897	898	5197	1	180.0	167.36
926	5297	5299	1	110.0	502.08
926	5297	5296	1	110.0	502.08
925	926	5297	1	180.0	167.36
954	5397	5399	1	110.0	502.08
954	5397	5396	1	110.0	502.08
953	954	5397	1	180.0	167.36
982	5497	5499	1	110.0	502.08
982	5497	5496	1	110.0	502.08
981	982	5497	1	180.0	167.36
1010	5597	5599	1	110.0	502.08
1010	5597	5596	1	110.0	502.08
1009	1010	5597	1	180.0	167.36
1038	5697	5699	1	110.0	502.08
1038	5697	5696	1	110.0	502.08
1037	1038	5697	1	180.0	167.36
1066	5797	5799	1	110.0	502.08
1066	5797	5796	1	110.0	502.08
1065	1066	5797	1	180.0	167.36
1094	5897	5899	1	110.0	502.08
1094	5897	5896	1	110.0	502.08
1093	1094	5897	1	180.0	167.36
1122	5997	5999	1	110.0	502.08
1122	5997	5996	1	110.0	502.08
1121	1122	5997	1	180.0	167.36
1150	6097	6099	1	110.0	502.08
1150	6097	6096	1	110.0	502.08
1149	1150	6097	1	180.0	167.36
1178	6197	6199	1	110.0	502.08
1178	6197	6196	1	110.0	502.08
1177	1178	6197	1	180.0	167.36
1206	6297	6299	1	110.0	502.08
1206	6297	6296	1	110.0	502.08
1205	1206	6297	1	180.0	167.36
1234	6397	6399	1	110.0	502.08
1234	6397	6396	1	110.0	502.08
1233	1234	6397	1	180.0	167.36
1262	6497	6499	1	110.0	502.08
1262	6497	6496	1	110.0	502.08
1261	1262	6497	1	180.0	167.36
1290	6597	6599	1	110.0	502.08
1290	6597	6596	1	110.0	502.08
1289	1290	6597	1	180.0	167.36
1318	6697	6699	1	110.0	502.08
1318	6697	6696	1	110.0	502.08
1317	1318	6697	1	180.0	167.36
1346	6797	6799	1	110.0	502.08
1346	6797	6796	1	110.0	502.08
1345	1346	6797	1	180.0	167.36
1374	6897	6899	1	110.0	502.08
1374	6897	6896	1	110.0	502.08
1373	1374	6897	1	180.0	167.36
1402	6997	6999	1	110.0	502.08
1402	6997	6996	1	110.0	502.08
1401	1402	6997	1	180.0	167.36
1430	7097	7099	1	110.0	502.08
1430	7097	7096	1	110.0	502.08
1429	1430	7097	1	180.0	167.36
1458	7197	7199	1	110.0	502.08
1458	7197	7196	1	110.0	502.08
1457	1458	7197	1	180.0	167.36
1486	7297	7299	1	110.0	502.08
1486	7297	7296	1	110.0	502.08
1485	1486	7297	1	180.0	167.36
1514	7397	7399	1	110.0	502.08
1514	7397	7396	1	110.0	502.08
1513	1514	7397	1	180.0	167.36
1542	7497	7499	1	110.0	502.08
1542	7497	7496	1	110.0	502.08
1541	1542	7497	1	180.0	167.36
1570	7597	7599	1	110.0	502.08
1570	7597	7596	1	110.0	502.08
1569	1570	7597	1	180.0	167.36
1598	7697	7699	1	110.0	502.08
1598	7697	7696	1	110.0	502.08
1597	1598	7697	1	180.0	167.36
1626	7797	7799	1	110.0	502.08
1626	7797	7796	1	110.0	502.08
1625	1626	7797	1	180.0	167.36
1654	7897	7899	1	110.0	502.08
1654	7897	7896	1	110.0	502.08
1653	1654	7897	1	180.0	167.36
1682	7997	7999	1	110.0	502.08
1682	7997	7996	1	110.0	502.08
1681	1682	7997	1	180.0	167.36
1710	8097	8099	1	110.0	502.08
1710	8097	8096	1	110.0	502.08
1709	1710	8097	1	180.0	167.36
1738	8197	8199	1	110.0	502.08
1738	8197	8196	1	110.0	502.08
1737	1738	8197	1	180.0	167.36
1766	8297	8299	1	110.0	502.08
1766	8297	8296	1	110.0	502.08
1765	1766	8297	1	180.0	167.36
[ dihedrals ] 
; IMPROPER DIHEDRAL ANGLES
;  ai    aj    ak    al funct            c0            c1            c2            c3            c4            c5

2000	1994	1993	1995	4	180.000	10.460	2
2001	1993	1992	1994	4	180.000	10.460	2
2042	2006	2005	2007	4	180.000	10.460	2
1999	1997	1996	1998	4	180.0	0.0	2
2032	2027	2026	2028	4	180.000	10.460	2
2043	2003	1986	2004	4	180.000	10.460	2
2002	1990	1989	1991	4	180.000	10.460	2
2037	2011	2010	2012	4	180.000	10.460	2
2041	2009	2008	2010	4	180.000	10.460	2
2026	2015	2014	2016	4	180.000	10.460	2
2019	2016	2015	2017	4	180.000	10.460	2
2023	2020	2019	2021	4	180.000	10.460	2
2064	2010	2009	2011	4	180.000	10.460	2
2057	2000	1994	1999	4	180.000	10.460	2
2053	1995	1994	1996	4	180.000	10.460	2
2058	2001	1993	2002	4	180.000	10.460	2
2052	1992	1991	1993	4	180.000	10.460	2
2054	1996	1995	1997	4	180.000	10.460	2
2051	1991	1990	1992	4	180.000	10.460	2
2060	2004	2003	2005	4	180.000	10.460	2
2061	2005	2004	2006	4	180.000	10.460	2
2068	2028	2027	2029	4	180.000	10.460	2
2056	1999	1997	2000	4	180.000	10.460	2
2069	2029	2028	2030	4	180.000	10.460	2
2071	2031	2030	2032	4	180.000	10.460	2
2072	2032	2027	2031	4	180.000	10.460	2
2084	2043	2003	2042	4	180.000	10.460	2
2083	2042	2006	2043	4	180.000	10.460	2
2070	2030	2029	2031	4	180.000	10.460	2
2059	2002	1990	2001	4	180.000	10.460	2
2063	2008	2007	2009	4	180.000	10.460	2
2066	2013	2012	2014	4	180.000	10.460	2
2065	2012	2011	2013	4	180.000	10.460	2
2067	2014	2013	2015	4	180.000	10.460	2
2062	2007	2006	2008	4	180.000	10.460	2
2025	2019	2016	2020	4	180.000	10.460	2
2100	2094	2093	2095	4	180.000	10.460	2
2101	2093	2092	2094	4	180.000	10.460	2
2142	2106	2105	2107	4	180.000	10.460	2
2099	2097	2096	2098	4	180.0	0.0	2
2132	2127	2126	2128	4	180.000	10.460	2
2143	2103	2086	2104	4	180.000	10.460	2
2102	2090	2089	2091	4	180.000	10.460	2
2137	2111	2110	2112	4	180.000	10.460	2
2141	2109	2108	2110	4	180.000	10.460	2
2126	2115	2114	2116	4	180.000	10.460	2
2119	2116	2115	2117	4	180.000	10.460	2
2123	2120	2119	2121	4	180.000	10.460	2
2164	2110	2109	2111	4	180.000	10.460	2
2157	2100	2094	2099	4	180.000	10.460	2
2153	2095	2094	2096	4	180.000	10.460	2
2158	2101	2093	2102	4	180.000	10.460	2
2152	2092	2091	2093	4	180.000	10.460	2
2154	2096	2095	2097	4	180.000	10.460	2
2151	2091	2090	2092	4	180.000	10.460	2
2160	2104	2103	2105	4	180.000	10.460	2
2161	2105	2104	2106	4	180.000	10.460	2
2168	2128	2127	2129	4	180.000	10.460	2
2156	2099	2097	2100	4	180.000	10.460	2
2169	2129	2128	2130	4	180.000	10.460	2
2171	2131	2130	2132	4	180.000	10.460	2
2172	2132	2127	2131	4	180.000	10.460	2
2184	2143	2103	2142	4	180.000	10.460	2
2183	2142	2106	2143	4	180.000	10.460	2
2170	2130	2129	2131	4	180.000	10.460	2
2159	2102	2090	2101	4	180.000	10.460	2
2163	2108	2107	2109	4	180.000	10.460	2
2166	2113	2112	2114	4	180.000	10.460	2
2165	2112	2111	2113	4	180.000	10.460	2
2167	2114	2113	2115	4	180.000	10.460	2
2162	2107	2106	2108	4	180.000	10.460	2
2125	2119	2116	2120	4	180.000	10.460	2
2200	2194	2193	2195	4	180.000	10.460	2
2201	2193	2192	2194	4	180.000	10.460	2
2242	2206	2205	2207	4	180.000	10.460	2
2199	2197	2196	2198	4	180.0	0.0	2
2232	2227	2226	2228	4	180.000	10.460	2
2243	2203	2186	2204	4	180.000	10.460	2
2202	2190	2189	2191	4	180.000	10.460	2
2237	2211	2210	2212	4	180.000	10.460	2
2241	2209	2208	2210	4	180.000	10.460	2
2226	2215	2214	2216	4	180.000	10.460	2
2219	2216	2215	2217	4	180.000	10.460	2
2223	2220	2219	2221	4	180.000	10.460	2
2264	2210	2209	2211	4	180.000	10.460	2
2257	2200	2194	2199	4	180.000	10.460	2
2253	2195	2194	2196	4	180.000	10.460	2
2258	2201	2193	2202	4	180.000	10.460	2
2252	2192	2191	2193	4	180.000	10.460	2
2254	2196	2195	2197	4	180.000	10.460	2
2251	2191	2190	2192	4	180.000	10.460	2
2260	2204	2203	2205	4	180.000	10.460	2
2261	2205	2204	2206	4	180.000	10.460	2
2268	2228	2227	2229	4	180.000	10.460	2
2256	2199	2197	2200	4	180.000	10.460	2
2269	2229	2228	2230	4	180.000	10.460	2
2271	2231	2230	2232	4	180.000	10.460	2
2272	2232	2227	2231	4	180.000	10.460	2
2284	2243	2203	2242	4	180.000	10.460	2
2283	2242	2206	2243	4	180.000	10.460	2
2270	2230	2229	2231	4	180.000	10.460	2
2259	2202	2190	2201	4	180.000	10.460	2
2263	2208	2207	2209	4	180.000	10.460	2
2266	2213	2212	2214	4	180.000	10.460	2
2265	2212	2211	2213	4	180.000	10.460	2
2267	2214	2213	2215	4	180.000	10.460	2
2262	2207	2206	2208	4	180.000	10.460	2
2225	2219	2216	2220	4	180.000	10.460	2
2300	2294	2293	2295	4	180.000	10.460	2
2301	2293	2292	2294	4	180.000	10.460	2
2342	2306	2305	2307	4	180.000	10.460	2
2299	2297	2296	2298	4	180.0	0.0	2
2332	2327	2326	2328	4	180.000	10.460	2
2343	2303	2286	2304	4	180.000	10.460	2
2302	2290	2289	2291	4	180.000	10.460	2
2337	2311	2310	2312	4	180.000	10.460	2
2341	2309	2308	2310	4	180.000	10.460	2
2326	2315	2314	2316	4	180.000	10.460	2
2319	2316	2315	2317	4	180.000	10.460	2
2323	2320	2319	2321	4	180.000	10.460	2
2364	2310	2309	2311	4	180.000	10.460	2
2357	2300	2294	2299	4	180.000	10.460	2
2353	2295	2294	2296	4	180.000	10.460	2
2358	2301	2293	2302	4	180.000	10.460	2
2352	2292	2291	2293	4	180.000	10.460	2
2354	2296	2295	2297	4	180.000	10.460	2
2351	2291	2290	2292	4	180.000	10.460	2
2360	2304	2303	2305	4	180.000	10.460	2
2361	2305	2304	2306	4	180.000	10.460	2
2368	2328	2327	2329	4	180.000	10.460	2
2356	2299	2297	2300	4	180.000	10.460	2
2369	2329	2328	2330	4	180.000	10.460	2
2371	2331	2330	2332	4	180.000	10.460	2
2372	2332	2327	2331	4	180.000	10.460	2
2384	2343	2303	2342	4	180.000	10.460	2
2383	2342	2306	2343	4	180.000	10.460	2
2370	2330	2329	2331	4	180.000	10.460	2
2359	2302	2290	2301	4	180.000	10.460	2
2363	2308	2307	2309	4	180.000	10.460	2
2366	2313	2312	2314	4	180.000	10.460	2
2365	2312	2311	2313	4	180.000	10.460	2
2367	2314	2313	2315	4	180.000	10.460	2
2362	2307	2306	2308	4	180.000	10.460	2
2325	2319	2316	2320	4	180.000	10.460	2
2400	2394	2393	2395	4	180.000	10.460	2
2401	2393	2392	2394	4	180.000	10.460	2
2442	2406	2405	2407	4	180.000	10.460	2
2399	2397	2396	2398	4	180.0	0.0	2
2432	2427	2426	2428	4	180.000	10.460	2
2443	2403	2386	2404	4	180.000	10.460	2
2402	2390	2389	2391	4	180.000	10.460	2
2437	2411	2410	2412	4	180.000	10.460	2
2441	2409	2408	2410	4	180.000	10.460	2
2426	2415	2414	2416	4	180.000	10.460	2
2419	2416	2415	2417	4	180.000	10.460	2
2423	2420	2419	2421	4	180.000	10.460	2
2464	2410	2409	2411	4	180.000	10.460	2
2457	2400	2394	2399	4	180.000	10.460	2
2453	2395	2394	2396	4	180.000	10.460	2
2458	2401	2393	2402	4	180.000	10.460	2
2452	2392	2391	2393	4	180.000	10.460	2
2454	2396	2395	2397	4	180.000	10.460	2
2451	2391	2390	2392	4	180.000	10.460	2
2460	2404	2403	2405	4	180.000	10.460	2
2461	2405	2404	2406	4	180.000	10.460	2
2468	2428	2427	2429	4	180.000	10.460	2
2456	2399	2397	2400	4	180.000	10.460	2
2469	2429	2428	2430	4	180.000	10.460	2
2471	2431	2430	2432	4	180.000	10.460	2
2472	2432	2427	2431	4	180.000	10.460	2
2484	2443	2403	2442	4	180.000	10.460	2
2483	2442	2406	2443	4	180.000	10.460	2
2470	2430	2429	2431	4	180.000	10.460	2
2459	2402	2390	2401	4	180.000	10.460	2
2463	2408	2407	2409	4	180.000	10.460	2
2466	2413	2412	2414	4	180.000	10.460	2
2465	2412	2411	2413	4	180.000	10.460	2
2467	2414	2413	2415	4	180.000	10.460	2
2462	2407	2406	2408	4	180.000	10.460	2
2425	2419	2416	2420	4	180.000	10.460	2
2500	2494	2493	2495	4	180.000	10.460	2
2501	2493	2492	2494	4	180.000	10.460	2
2542	2506	2505	2507	4	180.000	10.460	2
2499	2497	2496	2498	4	180.0	0.0	2
2532	2527	2526	2528	4	180.000	10.460	2
2543	2503	2486	2504	4	180.000	10.460	2
2502	2490	2489	2491	4	180.000	10.460	2
2537	2511	2510	2512	4	180.000	10.460	2
2541	2509	2508	2510	4	180.000	10.460	2
2526	2515	2514	2516	4	180.000	10.460	2
2519	2516	2515	2517	4	180.000	10.460	2
2523	2520	2519	2521	4	180.000	10.460	2
2564	2510	2509	2511	4	180.000	10.460	2
2557	2500	2494	2499	4	180.000	10.460	2
2553	2495	2494	2496	4	180.000	10.460	2
2558	2501	2493	2502	4	180.000	10.460	2
2552	2492	2491	2493	4	180.000	10.460	2
2554	2496	2495	2497	4	180.000	10.460	2
2551	2491	2490	2492	4	180.000	10.460	2
2560	2504	2503	2505	4	180.000	10.460	2
2561	2505	2504	2506	4	180.000	10.460	2
2568	2528	2527	2529	4	180.000	10.460	2
2556	2499	2497	2500	4	180.000	10.460	2
2569	2529	2528	2530	4	180.000	10.460	2
2571	2531	2530	2532	4	180.000	10.460	2
2572	2532	2527	2531	4	180.000	10.460	2
2584	2543	2503	2542	4	180.000	10.460	2
2583	2542	2506	2543	4	180.000	10.460	2
2570	2530	2529	2531	4	180.000	10.460	2
2559	2502	2490	2501	4	180.000	10.460	2
2563	2508	2507	2509	4	180.000	10.460	2
2566	2513	2512	2514	4	180.000	10.460	2
2565	2512	2511	2513	4	180.000	10.460	2
2567	2514	2513	2515	4	180.000	10.460	2
2562	2507	2506	2508	4	180.000	10.460	2
2525	2519	2516	2520	4	180.000	10.460	2
2600	2594	2593	2595	4	180.000	10.460	2
2601	2593	2592	2594	4	180.000	10.460	2
2642	2606	2605	2607	4	180.000	10.460	2
2599	2597	2596	2598	4	180.0	0.0	2
2632	2627	2626	2628	4	180.000	10.460	2
2643	2603	2586	2604	4	180.000	10.460	2
2602	2590	2589	2591	4	180.000	10.460	2
2637	2611	2610	2612	4	180.000	10.460	2
2641	2609	2608	2610	4	180.000	10.460	2
2626	2615	2614	2616	4	180.000	10.460	2
2619	2616	2615	2617	4	180.000	10.460	2
2623	2620	2619	2621	4	180.000	10.460	2
2664	2610	2609	2611	4	180.000	10.460	2
2657	2600	2594	2599	4	180.000	10.460	2
2653	2595	2594	2596	4	180.000	10.460	2
2658	2601	2593	2602	4	180.000	10.460	2
2652	2592	2591	2593	4	180.000	10.460	2
2654	2596	2595	2597	4	180.000	10.460	2
2651	2591	2590	2592	4	180.000	10.460	2
2660	2604	2603	2605	4	180.000	10.460	2
2661	2605	2604	2606	4	180.000	10.460	2
2668	2628	2627	2629	4	180.000	10.460	2
2656	2599	2597	2600	4	180.000	10.460	2
2669	2629	2628	2630	4	180.000	10.460	2
2671	2631	2630	2632	4	180.000	10.460	2
2672	2632	2627	2631	4	180.000	10.460	2
2684	2643	2603	2642	4	180.000	10.460	2
2683	2642	2606	2643	4	180.000	10.460	2
2670	2630	2629	2631	4	180.000	10.460	2
2659	2602	2590	2601	4	180.000	10.460	2
2663	2608	2607	2609	4	180.000	10.460	2
2666	2613	2612	2614	4	180.000	10.460	2
2665	2612	2611	2613	4	180.000	10.460	2
2667	2614	2613	2615	4	180.000	10.460	2
2662	2607	2606	2608	4	180.000	10.460	2
2625	2619	2616	2620	4	180.000	10.460	2
2700	2694	2693	2695	4	180.000	10.460	2
2701	2693	2692	2694	4	180.000	10.460	2
2742	2706	2705	2707	4	180.000	10.460	2
2699	2697	2696	2698	4	180.0	0.0	2
2732	2727	2726	2728	4	180.000	10.460	2
2743	2703	2686	2704	4	180.000	10.460	2
2702	2690	2689	2691	4	180.000	10.460	2
2737	2711	2710	2712	4	180.000	10.460	2
2741	2709	2708	2710	4	180.000	10.460	2
2726	2715	2714	2716	4	180.000	10.460	2
2719	2716	2715	2717	4	180.000	10.460	2
2723	2720	2719	2721	4	180.000	10.460	2
2764	2710	2709	2711	4	180.000	10.460	2
2757	2700	2694	2699	4	180.000	10.460	2
2753	2695	2694	2696	4	180.000	10.460	2
2758	2701	2693	2702	4	180.000	10.460	2
2752	2692	2691	2693	4	180.000	10.460	2
2754	2696	2695	2697	4	180.000	10.460	2
2751	2691	2690	2692	4	180.000	10.460	2
2760	2704	2703	2705	4	180.000	10.460	2
2761	2705	2704	2706	4	180.000	10.460	2
2768	2728	2727	2729	4	180.000	10.460	2
2756	2699	2697	2700	4	180.000	10.460	2
2769	2729	2728	2730	4	180.000	10.460	2
2771	2731	2730	2732	4	180.000	10.460	2
2772	2732	2727	2731	4	180.000	10.460	2
2784	2743	2703	2742	4	180.000	10.460	2
2783	2742	2706	2743	4	180.000	10.460	2
2770	2730	2729	2731	4	180.000	10.460	2
2759	2702	2690	2701	4	180.000	10.460	2
2763	2708	2707	2709	4	180.000	10.460	2
2766	2713	2712	2714	4	180.000	10.460	2
2765	2712	2711	2713	4	180.000	10.460	2
2767	2714	2713	2715	4	180.000	10.460	2
2762	2707	2706	2708	4	180.000	10.460	2
2725	2719	2716	2720	4	180.000	10.460	2
2800	2794	2793	2795	4	180.000	10.460	2
2801	2793	2792	2794	4	180.000	10.460	2
2842	2806	2805	2807	4	180.000	10.460	2
2799	2797	2796	2798	4	180.0	0.0	2
2832	2827	2826	2828	4	180.000	10.460	2
2843	2803	2786	2804	4	180.000	10.460	2
2802	2790	2789	2791	4	180.000	10.460	2
2837	2811	2810	2812	4	180.000	10.460	2
2841	2809	2808	2810	4	180.000	10.460	2
2826	2815	2814	2816	4	180.000	10.460	2
2819	2816	2815	2817	4	180.000	10.460	2
2823	2820	2819	2821	4	180.000	10.460	2
2864	2810	2809	2811	4	180.000	10.460	2
2857	2800	2794	2799	4	180.000	10.460	2
2853	2795	2794	2796	4	180.000	10.460	2
2858	2801	2793	2802	4	180.000	10.460	2
2852	2792	2791	2793	4	180.000	10.460	2
2854	2796	2795	2797	4	180.000	10.460	2
2851	2791	2790	2792	4	180.000	10.460	2
2860	2804	2803	2805	4	180.000	10.460	2
2861	2805	2804	2806	4	180.000	10.460	2
2868	2828	2827	2829	4	180.000	10.460	2
2856	2799	2797	2800	4	180.000	10.460	2
2869	2829	2828	2830	4	180.000	10.460	2
2871	2831	2830	2832	4	180.000	10.460	2
2872	2832	2827	2831	4	180.000	10.460	2
2884	2843	2803	2842	4	180.000	10.460	2
2883	2842	2806	2843	4	180.000	10.460	2
2870	2830	2829	2831	4	180.000	10.460	2
2859	2802	2790	2801	4	180.000	10.460	2
2863	2808	2807	2809	4	180.000	10.460	2
2866	2813	2812	2814	4	180.000	10.460	2
2865	2812	2811	2813	4	180.000	10.460	2
2867	2814	2813	2815	4	180.000	10.460	2
2862	2807	2806	2808	4	180.000	10.460	2
2825	2819	2816	2820	4	180.000	10.460	2
2900	2894	2893	2895	4	180.000	10.460	2
2901	2893	2892	2894	4	180.000	10.460	2
2942	2906	2905	2907	4	180.000	10.460	2
2899	2897	2896	2898	4	180.0	0.0	2
2932	2927	2926	2928	4	180.000	10.460	2
2943	2903	2886	2904	4	180.000	10.460	2
2902	2890	2889	2891	4	180.000	10.460	2
2937	2911	2910	2912	4	180.000	10.460	2
2941	2909	2908	2910	4	180.000	10.460	2
2926	2915	2914	2916	4	180.000	10.460	2
2919	2916	2915	2917	4	180.000	10.460	2
2923	2920	2919	2921	4	180.000	10.460	2
2964	2910	2909	2911	4	180.000	10.460	2
2957	2900	2894	2899	4	180.000	10.460	2
2953	2895	2894	2896	4	180.000	10.460	2
2958	2901	2893	2902	4	180.000	10.460	2
2952	2892	2891	2893	4	180.000	10.460	2
2954	2896	2895	2897	4	180.000	10.460	2
2951	2891	2890	2892	4	180.000	10.460	2
2960	2904	2903	2905	4	180.000	10.460	2
2961	2905	2904	2906	4	180.000	10.460	2
2968	2928	2927	2929	4	180.000	10.460	2
2956	2899	2897	2900	4	180.000	10.460	2
2969	2929	2928	2930	4	180.000	10.460	2
2971	2931	2930	2932	4	180.000	10.460	2
2972	2932	2927	2931	4	180.000	10.460	2
2984	2943	2903	2942	4	180.000	10.460	2
2983	2942	2906	2943	4	180.000	10.460	2
2970	2930	2929	2931	4	180.000	10.460	2
2959	2902	2890	2901	4	180.000	10.460	2
2963	2908	2907	2909	4	180.000	10.460	2
2966	2913	2912	2914	4	180.000	10.460	2
2965	2912	2911	2913	4	180.000	10.460	2
2967	2914	2913	2915	4	180.000	10.460	2
2962	2907	2906	2908	4	180.000	10.460	2
2925	2919	2916	2920	4	180.000	10.460	2
3000	2994	2993	2995	4	180.000	10.460	2
3001	2993	2992	2994	4	180.000	10.460	2
3042	3006	3005	3007	4	180.000	10.460	2
2999	2997	2996	2998	4	180.0	0.0	2
3032	3027	3026	3028	4	180.000	10.460	2
3043	3003	2986	3004	4	180.000	10.460	2
3002	2990	2989	2991	4	180.000	10.460	2
3037	3011	3010	3012	4	180.000	10.460	2
3041	3009	3008	3010	4	180.000	10.460	2
3026	3015	3014	3016	4	180.000	10.460	2
3019	3016	3015	3017	4	180.000	10.460	2
3023	3020	3019	3021	4	180.000	10.460	2
3064	3010	3009	3011	4	180.000	10.460	2
3057	3000	2994	2999	4	180.000	10.460	2
3053	2995	2994	2996	4	180.000	10.460	2
3058	3001	2993	3002	4	180.000	10.460	2
3052	2992	2991	2993	4	180.000	10.460	2
3054	2996	2995	2997	4	180.000	10.460	2
3051	2991	2990	2992	4	180.000	10.460	2
3060	3004	3003	3005	4	180.000	10.460	2
3061	3005	3004	3006	4	180.000	10.460	2
3068	3028	3027	3029	4	180.000	10.460	2
3056	2999	2997	3000	4	180.000	10.460	2
3069	3029	3028	3030	4	180.000	10.460	2
3071	3031	3030	3032	4	180.000	10.460	2
3072	3032	3027	3031	4	180.000	10.460	2
3084	3043	3003	3042	4	180.000	10.460	2
3083	3042	3006	3043	4	180.000	10.460	2
3070	3030	3029	3031	4	180.000	10.460	2
3059	3002	2990	3001	4	180.000	10.460	2
3063	3008	3007	3009	4	180.000	10.460	2
3066	3013	3012	3014	4	180.000	10.460	2
3065	3012	3011	3013	4	180.000	10.460	2
3067	3014	3013	3015	4	180.000	10.460	2
3062	3007	3006	3008	4	180.000	10.460	2
3025	3019	3016	3020	4	180.000	10.460	2
3100	3094	3093	3095	4	180.000	10.460	2
3101	3093	3092	3094	4	180.000	10.460	2
3142	3106	3105	3107	4	180.000	10.460	2
3099	3097	3096	3098	4	180.0	0.0	2
3132	3127	3126	3128	4	180.000	10.460	2
3143	3103	3086	3104	4	180.000	10.460	2
3102	3090	3089	3091	4	180.000	10.460	2
3137	3111	3110	3112	4	180.000	10.460	2
3141	3109	3108	3110	4	180.000	10.460	2
3126	3115	3114	3116	4	180.000	10.460	2
3119	3116	3115	3117	4	180.000	10.460	2
3123	3120	3119	3121	4	180.000	10.460	2
3164	3110	3109	3111	4	180.000	10.460	2
3157	3100	3094	3099	4	180.000	10.460	2
3153	3095	3094	3096	4	180.000	10.460	2
3158	3101	3093	3102	4	180.000	10.460	2
3152	3092	3091	3093	4	180.000	10.460	2
3154	3096	3095	3097	4	180.000	10.460	2
3151	3091	3090	3092	4	180.000	10.460	2
3160	3104	3103	3105	4	180.000	10.460	2
3161	3105	3104	3106	4	180.000	10.460	2
3168	3128	3127	3129	4	180.000	10.460	2
3156	3099	3097	3100	4	180.000	10.460	2
3169	3129	3128	3130	4	180.000	10.460	2
3171	3131	3130	3132	4	180.000	10.460	2
3172	3132	3127	3131	4	180.000	10.460	2
3184	3143	3103	3142	4	180.000	10.460	2
3183	3142	3106	3143	4	180.000	10.460	2
3170	3130	3129	3131	4	180.000	10.460	2
3159	3102	3090	3101	4	180.000	10.460	2
3163	3108	3107	3109	4	180.000	10.460	2
3166	3113	3112	3114	4	180.000	10.460	2
3165	3112	3111	3113	4	180.000	10.460	2
3167	3114	3113	3115	4	180.000	10.460	2
3162	3107	3106	3108	4	180.000	10.460	2
3125	3119	3116	3120	4	180.000	10.460	2
3200	3194	3193	3195	4	180.000	10.460	2
3201	3193	3192	3194	4	180.000	10.460	2
3242	3206	3205	3207	4	180.000	10.460	2
3199	3197	3196	3198	4	180.0	0.0	2
3232	3227	3226	3228	4	180.000	10.460	2
3243	3203	3186	3204	4	180.000	10.460	2
3202	3190	3189	3191	4	180.000	10.460	2
3237	3211	3210	3212	4	180.000	10.460	2
3241	3209	3208	3210	4	180.000	10.460	2
3226	3215	3214	3216	4	180.000	10.460	2
3219	3216	3215	3217	4	180.000	10.460	2
3223	3220	3219	3221	4	180.000	10.460	2
3264	3210	3209	3211	4	180.000	10.460	2
3257	3200	3194	3199	4	180.000	10.460	2
3253	3195	3194	3196	4	180.000	10.460	2
3258	3201	3193	3202	4	180.000	10.460	2
3252	3192	3191	3193	4	180.000	10.460	2
3254	3196	3195	3197	4	180.000	10.460	2
3251	3191	3190	3192	4	180.000	10.460	2
3260	3204	3203	3205	4	180.000	10.460	2
3261	3205	3204	3206	4	180.000	10.460	2
3268	3228	3227	3229	4	180.000	10.460	2
3256	3199	3197	3200	4	180.000	10.460	2
3269	3229	3228	3230	4	180.000	10.460	2
3271	3231	3230	3232	4	180.000	10.460	2
3272	3232	3227	3231	4	180.000	10.460	2
3284	3243	3203	3242	4	180.000	10.460	2
3283	3242	3206	3243	4	180.000	10.460	2
3270	3230	3229	3231	4	180.000	10.460	2
3259	3202	3190	3201	4	180.000	10.460	2
3263	3208	3207	3209	4	180.000	10.460	2
3266	3213	3212	3214	4	180.000	10.460	2
3265	3212	3211	3213	4	180.000	10.460	2
3267	3214	3213	3215	4	180.000	10.460	2
3262	3207	3206	3208	4	180.000	10.460	2
3225	3219	3216	3220	4	180.000	10.460	2
3300	3294	3293	3295	4	180.000	10.460	2
3301	3293	3292	3294	4	180.000	10.460	2
3342	3306	3305	3307	4	180.000	10.460	2
3299	3297	3296	3298	4	180.0	0.0	2
3332	3327	3326	3328	4	180.000	10.460	2
3343	3303	3286	3304	4	180.000	10.460	2
3302	3290	3289	3291	4	180.000	10.460	2
3337	3311	3310	3312	4	180.000	10.460	2
3341	3309	3308	3310	4	180.000	10.460	2
3326	3315	3314	3316	4	180.000	10.460	2
3319	3316	3315	3317	4	180.000	10.460	2
3323	3320	3319	3321	4	180.000	10.460	2
3364	3310	3309	3311	4	180.000	10.460	2
3357	3300	3294	3299	4	180.000	10.460	2
3353	3295	3294	3296	4	180.000	10.460	2
3358	3301	3293	3302	4	180.000	10.460	2
3352	3292	3291	3293	4	180.000	10.460	2
3354	3296	3295	3297	4	180.000	10.460	2
3351	3291	3290	3292	4	180.000	10.460	2
3360	3304	3303	3305	4	180.000	10.460	2
3361	3305	3304	3306	4	180.000	10.460	2
3368	3328	3327	3329	4	180.000	10.460	2
3356	3299	3297	3300	4	180.000	10.460	2
3369	3329	3328	3330	4	180.000	10.460	2
3371	3331	3330	3332	4	180.000	10.460	2
3372	3332	3327	3331	4	180.000	10.460	2
3384	3343	3303	3342	4	180.000	10.460	2
3383	3342	3306	3343	4	180.000	10.460	2
3370	3330	3329	3331	4	180.000	10.460	2
3359	3302	3290	3301	4	180.000	10.460	2
3363	3308	3307	3309	4	180.000	10.460	2
3366	3313	3312	3314	4	180.000	10.460	2
3365	3312	3311	3313	4	180.000	10.460	2
3367	3314	3313	3315	4	180.000	10.460	2
3362	3307	3306	3308	4	180.000	10.460	2
3325	3319	3316	3320	4	180.000	10.460	2
3400	3394	3393	3395	4	180.000	10.460	2
3401	3393	3392	3394	4	180.000	10.460	2
3442	3406	3405	3407	4	180.000	10.460	2
3399	3397	3396	3398	4	180.0	0.0	2
3432	3427	3426	3428	4	180.000	10.460	2
3443	3403	3386	3404	4	180.000	10.460	2
3402	3390	3389	3391	4	180.000	10.460	2
3437	3411	3410	3412	4	180.000	10.460	2
3441	3409	3408	3410	4	180.000	10.460	2
3426	3415	3414	3416	4	180.000	10.460	2
3419	3416	3415	3417	4	180.000	10.460	2
3423	3420	3419	3421	4	180.000	10.460	2
3464	3410	3409	3411	4	180.000	10.460	2
3457	3400	3394	3399	4	180.000	10.460	2
3453	3395	3394	3396	4	180.000	10.460	2
3458	3401	3393	3402	4	180.000	10.460	2
3452	3392	3391	3393	4	180.000	10.460	2
3454	3396	3395	3397	4	180.000	10.460	2
3451	3391	3390	3392	4	180.000	10.460	2
3460	3404	3403	3405	4	180.000	10.460	2
3461	3405	3404	3406	4	180.000	10.460	2
3468	3428	3427	3429	4	180.000	10.460	2
3456	3399	3397	3400	4	180.000	10.460	2
3469	3429	3428	3430	4	180.000	10.460	2
3471	3431	3430	3432	4	180.000	10.460	2
3472	3432	3427	3431	4	180.000	10.460	2
3484	3443	3403	3442	4	180.000	10.460	2
3483	3442	3406	3443	4	180.000	10.460	2
3470	3430	3429	3431	4	180.000	10.460	2
3459	3402	3390	3401	4	180.000	10.460	2
3463	3408	3407	3409	4	180.000	10.460	2
3466	3413	3412	3414	4	180.000	10.460	2
3465	3412	3411	3413	4	180.000	10.460	2
3467	3414	3413	3415	4	180.000	10.460	2
3462	3407	3406	3408	4	180.000	10.460	2
3425	3419	3416	3420	4	180.000	10.460	2
3500	3494	3493	3495	4	180.000	10.460	2
3501	3493	3492	3494	4	180.000	10.460	2
3542	3506	3505	3507	4	180.000	10.460	2
3499	3497	3496	3498	4	180.0	0.0	2
3532	3527	3526	3528	4	180.000	10.460	2
3543	3503	3486	3504	4	180.000	10.460	2
3502	3490	3489	3491	4	180.000	10.460	2
3537	3511	3510	3512	4	180.000	10.460	2
3541	3509	3508	3510	4	180.000	10.460	2
3526	3515	3514	3516	4	180.000	10.460	2
3519	3516	3515	3517	4	180.000	10.460	2
3523	3520	3519	3521	4	180.000	10.460	2
3564	3510	3509	3511	4	180.000	10.460	2
3557	3500	3494	3499	4	180.000	10.460	2
3553	3495	3494	3496	4	180.000	10.460	2
3558	3501	3493	3502	4	180.000	10.460	2
3552	3492	3491	3493	4	180.000	10.460	2
3554	3496	3495	3497	4	180.000	10.460	2
3551	3491	3490	3492	4	180.000	10.460	2
3560	3504	3503	3505	4	180.000	10.460	2
3561	3505	3504	3506	4	180.000	10.460	2
3568	3528	3527	3529	4	180.000	10.460	2
3556	3499	3497	3500	4	180.000	10.460	2
3569	3529	3528	3530	4	180.000	10.460	2
3571	3531	3530	3532	4	180.000	10.460	2
3572	3532	3527	3531	4	180.000	10.460	2
3584	3543	3503	3542	4	180.000	10.460	2
3583	3542	3506	3543	4	180.000	10.460	2
3570	3530	3529	3531	4	180.000	10.460	2
3559	3502	3490	3501	4	180.000	10.460	2
3563	3508	3507	3509	4	180.000	10.460	2
3566	3513	3512	3514	4	180.000	10.460	2
3565	3512	3511	3513	4	180.000	10.460	2
3567	3514	3513	3515	4	180.000	10.460	2
3562	3507	3506	3508	4	180.000	10.460	2
3525	3519	3516	3520	4	180.000	10.460	2
3600	3594	3593	3595	4	180.000	10.460	2
3601	3593	3592	3594	4	180.000	10.460	2
3642	3606	3605	3607	4	180.000	10.460	2
3599	3597	3596	3598	4	180.0	0.0	2
3632	3627	3626	3628	4	180.000	10.460	2
3643	3603	3586	3604	4	180.000	10.460	2
3602	3590	3589	3591	4	180.000	10.460	2
3637	3611	3610	3612	4	180.000	10.460	2
3641	3609	3608	3610	4	180.000	10.460	2
3626	3615	3614	3616	4	180.000	10.460	2
3619	3616	3615	3617	4	180.000	10.460	2
3623	3620	3619	3621	4	180.000	10.460	2
3664	3610	3609	3611	4	180.000	10.460	2
3657	3600	3594	3599	4	180.000	10.460	2
3653	3595	3594	3596	4	180.000	10.460	2
3658	3601	3593	3602	4	180.000	10.460	2
3652	3592	3591	3593	4	180.000	10.460	2
3654	3596	3595	3597	4	180.000	10.460	2
3651	3591	3590	3592	4	180.000	10.460	2
3660	3604	3603	3605	4	180.000	10.460	2
3661	3605	3604	3606	4	180.000	10.460	2
3668	3628	3627	3629	4	180.000	10.460	2
3656	3599	3597	3600	4	180.000	10.460	2
3669	3629	3628	3630	4	180.000	10.460	2
3671	3631	3630	3632	4	180.000	10.460	2
3672	3632	3627	3631	4	180.000	10.460	2
3684	3643	3603	3642	4	180.000	10.460	2
3683	3642	3606	3643	4	180.000	10.460	2
3670	3630	3629	3631	4	180.000	10.460	2
3659	3602	3590	3601	4	180.000	10.460	2
3663	3608	3607	3609	4	180.000	10.460	2
3666	3613	3612	3614	4	180.000	10.460	2
3665	3612	3611	3613	4	180.000	10.460	2
3667	3614	3613	3615	4	180.000	10.460	2
3662	3607	3606	3608	4	180.000	10.460	2
3625	3619	3616	3620	4	180.000	10.460	2
3700	3694	3693	3695	4	180.000	10.460	2
3701	3693	3692	3694	4	180.000	10.460	2
3742	3706	3705	3707	4	180.000	10.460	2
3699	3697	3696	3698	4	180.0	0.0	2
3732	3727	3726	3728	4	180.000	10.460	2
3743	3703	3686	3704	4	180.000	10.460	2
3702	3690	3689	3691	4	180.000	10.460	2
3737	3711	3710	3712	4	180.000	10.460	2
3741	3709	3708	3710	4	180.000	10.460	2
3726	3715	3714	3716	4	180.000	10.460	2
3719	3716	3715	3717	4	180.000	10.460	2
3723	3720	3719	3721	4	180.000	10.460	2
3764	3710	3709	3711	4	180.000	10.460	2
3757	3700	3694	3699	4	180.000	10.460	2
3753	3695	3694	3696	4	180.000	10.460	2
3758	3701	3693	3702	4	180.000	10.460	2
3752	3692	3691	3693	4	180.000	10.460	2
3754	3696	3695	3697	4	180.000	10.460	2
3751	3691	3690	3692	4	180.000	10.460	2
3760	3704	3703	3705	4	180.000	10.460	2
3761	3705	3704	3706	4	180.000	10.460	2
3768	3728	3727	3729	4	180.000	10.460	2
3756	3699	3697	3700	4	180.000	10.460	2
3769	3729	3728	3730	4	180.000	10.460	2
3771	3731	3730	3732	4	180.000	10.460	2
3772	3732	3727	3731	4	180.000	10.460	2
3784	3743	3703	3742	4	180.000	10.460	2
3783	3742	3706	3743	4	180.000	10.460	2
3770	3730	3729	3731	4	180.000	10.460	2
3759	3702	3690	3701	4	180.000	10.460	2
3763	3708	3707	3709	4	180.000	10.460	2
3766	3713	3712	3714	4	180.000	10.460	2
3765	3712	3711	3713	4	180.000	10.460	2
3767	3714	3713	3715	4	180.000	10.460	2
3762	3707	3706	3708	4	180.000	10.460	2
3725	3719	3716	3720	4	180.000	10.460	2
3800	3794	3793	3795	4	180.000	10.460	2
3801	3793	3792	3794	4	180.000	10.460	2
3842	3806	3805	3807	4	180.000	10.460	2
3799	3797	3796	3798	4	180.0	0.0	2
3832	3827	3826	3828	4	180.000	10.460	2
3843	3803	3786	3804	4	180.000	10.460	2
3802	3790	3789	3791	4	180.000	10.460	2
3837	3811	3810	3812	4	180.000	10.460	2
3841	3809	3808	3810	4	180.000	10.460	2
3826	3815	3814	3816	4	180.000	10.460	2
3819	3816	3815	3817	4	180.000	10.460	2
3823	3820	3819	3821	4	180.000	10.460	2
3864	3810	3809	3811	4	180.000	10.460	2
3857	3800	3794	3799	4	180.000	10.460	2
3853	3795	3794	3796	4	180.000	10.460	2
3858	3801	3793	3802	4	180.000	10.460	2
3852	3792	3791	3793	4	180.000	10.460	2
3854	3796	3795	3797	4	180.000	10.460	2
3851	3791	3790	3792	4	180.000	10.460	2
3860	3804	3803	3805	4	180.000	10.460	2
3861	3805	3804	3806	4	180.000	10.460	2
3868	3828	3827	3829	4	180.000	10.460	2
3856	3799	3797	3800	4	180.000	10.460	2
3869	3829	3828	3830	4	180.000	10.460	2
3871	3831	3830	3832	4	180.000	10.460	2
3872	3832	3827	3831	4	180.000	10.460	2
3884	3843	3803	3842	4	180.000	10.460	2
3883	3842	3806	3843	4	180.000	10.460	2
3870	3830	3829	3831	4	180.000	10.460	2
3859	3802	3790	3801	4	180.000	10.460	2
3863	3808	3807	3809	4	180.000	10.460	2
3866	3813	3812	3814	4	180.000	10.460	2
3865	3812	3811	3813	4	180.000	10.460	2
3867	3814	3813	3815	4	180.000	10.460	2
3862	3807	3806	3808	4	180.000	10.460	2
3825	3819	3816	3820	4	180.000	10.460	2
3900	3894	3893	3895	4	180.000	10.460	2
3901	3893	3892	3894	4	180.000	10.460	2
3942	3906	3905	3907	4	180.000	10.460	2
3899	3897	3896	3898	4	180.0	0.0	2
3932	3927	3926	3928	4	180.000	10.460	2
3943	3903	3886	3904	4	180.000	10.460	2
3902	3890	3889	3891	4	180.000	10.460	2
3937	3911	3910	3912	4	180.000	10.460	2
3941	3909	3908	3910	4	180.000	10.460	2
3926	3915	3914	3916	4	180.000	10.460	2
3919	3916	3915	3917	4	180.000	10.460	2
3923	3920	3919	3921	4	180.000	10.460	2
3964	3910	3909	3911	4	180.000	10.460	2
3957	3900	3894	3899	4	180.000	10.460	2
3953	3895	3894	3896	4	180.000	10.460	2
3958	3901	3893	3902	4	180.000	10.460	2
3952	3892	3891	3893	4	180.000	10.460	2
3954	3896	3895	3897	4	180.000	10.460	2
3951	3891	3890	3892	4	180.000	10.460	2
3960	3904	3903	3905	4	180.000	10.460	2
3961	3905	3904	3906	4	180.000	10.460	2
3968	3928	3927	3929	4	180.000	10.460	2
3956	3899	3897	3900	4	180.000	10.460	2
3969	3929	3928	3930	4	180.000	10.460	2
3971	3931	3930	3932	4	180.000	10.460	2
3972	3932	3927	3931	4	180.000	10.460	2
3984	3943	3903	3942	4	180.000	10.460	2
3983	3942	3906	3943	4	180.000	10.460	2
3970	3930	3929	3931	4	180.000	10.460	2
3959	3902	3890	3901	4	180.000	10.460	2
3963	3908	3907	3909	4	180.000	10.460	2
3966	3913	3912	3914	4	180.000	10.460	2
3965	3912	3911	3913	4	180.000	10.460	2
3967	3914	3913	3915	4	180.000	10.460	2
3962	3907	3906	3908	4	180.000	10.460	2
3925	3919	3916	3920	4	180.000	10.460	2
4000	3994	3993	3995	4	180.000	10.460	2
4001	3993	3992	3994	4	180.000	10.460	2
4042	4006	4005	4007	4	180.000	10.460	2
3999	3997	3996	3998	4	180.0	0.0	2
4032	4027	4026	4028	4	180.000	10.460	2
4043	4003	3986	4004	4	180.000	10.460	2
4002	3990	3989	3991	4	180.000	10.460	2
4037	4011	4010	4012	4	180.000	10.460	2
4041	4009	4008	4010	4	180.000	10.460	2
4026	4015	4014	4016	4	180.000	10.460	2
4019	4016	4015	4017	4	180.000	10.460	2
4023	4020	4019	4021	4	180.000	10.460	2
4064	4010	4009	4011	4	180.000	10.460	2
4057	4000	3994	3999	4	180.000	10.460	2
4053	3995	3994	3996	4	180.000	10.460	2
4058	4001	3993	4002	4	180.000	10.460	2
4052	3992	3991	3993	4	180.000	10.460	2
4054	3996	3995	3997	4	180.000	10.460	2
4051	3991	3990	3992	4	180.000	10.460	2
4060	4004	4003	4005	4	180.000	10.460	2
4061	4005	4004	4006	4	180.000	10.460	2
4068	4028	4027	4029	4	180.000	10.460	2
4056	3999	3997	4000	4	180.000	10.460	2
4069	4029	4028	4030	4	180.000	10.460	2
4071	4031	4030	4032	4	180.000	10.460	2
4072	4032	4027	4031	4	180.000	10.460	2
4084	4043	4003	4042	4	180.000	10.460	2
4083	4042	4006	4043	4	180.000	10.460	2
4070	4030	4029	4031	4	180.000	10.460	2
4059	4002	3990	4001	4	180.000	10.460	2
4063	4008	4007	4009	4	180.000	10.460	2
4066	4013	4012	4014	4	180.000	10.460	2
4065	4012	4011	4013	4	180.000	10.460	2
4067	4014	4013	4015	4	180.000	10.460	2
4062	4007	4006	4008	4	180.000	10.460	2
4025	4019	4016	4020	4	180.000	10.460	2
4100	4094	4093	4095	4	180.000	10.460	2
4101	4093	4092	4094	4	180.000	10.460	2
4142	4106	4105	4107	4	180.000	10.460	2
4099	4097	4096	4098	4	180.0	0.0	2
4132	4127	4126	4128	4	180.000	10.460	2
4143	4103	4086	4104	4	180.000	10.460	2
4102	4090	4089	4091	4	180.000	10.460	2
4137	4111	4110	4112	4	180.000	10.460	2
4141	4109	4108	4110	4	180.000	10.460	2
4126	4115	4114	4116	4	180.000	10.460	2
4119	4116	4115	4117	4	180.000	10.460	2
4123	4120	4119	4121	4	180.000	10.460	2
4164	4110	4109	4111	4	180.000	10.460	2
4157	4100	4094	4099	4	180.000	10.460	2
4153	4095	4094	4096	4	180.000	10.460	2
4158	4101	4093	4102	4	180.000	10.460	2
4152	4092	4091	4093	4	180.000	10.460	2
4154	4096	4095	4097	4	180.000	10.460	2
4151	4091	4090	4092	4	180.000	10.460	2
4160	4104	4103	4105	4	180.000	10.460	2
4161	4105	4104	4106	4	180.000	10.460	2
4168	4128	4127	4129	4	180.000	10.460	2
4156	4099	4097	4100	4	180.000	10.460	2
4169	4129	4128	4130	4	180.000	10.460	2
4171	4131	4130	4132	4	180.000	10.460	2
4172	4132	4127	4131	4	180.000	10.460	2
4184	4143	4103	4142	4	180.000	10.460	2
4183	4142	4106	4143	4	180.000	10.460	2
4170	4130	4129	4131	4	180.000	10.460	2
4159	4102	4090	4101	4	180.000	10.460	2
4163	4108	4107	4109	4	180.000	10.460	2
4166	4113	4112	4114	4	180.000	10.460	2
4165	4112	4111	4113	4	180.000	10.460	2
4167	4114	4113	4115	4	180.000	10.460	2
4162	4107	4106	4108	4	180.000	10.460	2
4125	4119	4116	4120	4	180.000	10.460	2
4200	4194	4193	4195	4	180.000	10.460	2
4201	4193	4192	4194	4	180.000	10.460	2
4242	4206	4205	4207	4	180.000	10.460	2
4199	4197	4196	4198	4	180.0	0.0	2
4232	4227	4226	4228	4	180.000	10.460	2
4243	4203	4186	4204	4	180.000	10.460	2
4202	4190	4189	4191	4	180.000	10.460	2
4237	4211	4210	4212	4	180.000	10.460	2
4241	4209	4208	4210	4	180.000	10.460	2
4226	4215	4214	4216	4	180.000	10.460	2
4219	4216	4215	4217	4	180.000	10.460	2
4223	4220	4219	4221	4	180.000	10.460	2
4264	4210	4209	4211	4	180.000	10.460	2
4257	4200	4194	4199	4	180.000	10.460	2
4253	4195	4194	4196	4	180.000	10.460	2
4258	4201	4193	4202	4	180.000	10.460	2
4252	4192	4191	4193	4	180.000	10.460	2
4254	4196	4195	4197	4	180.000	10.460	2
4251	4191	4190	4192	4	180.000	10.460	2
4260	4204	4203	4205	4	180.000	10.460	2
4261	4205	4204	4206	4	180.000	10.460	2
4268	4228	4227	4229	4	180.000	10.460	2
4256	4199	4197	4200	4	180.000	10.460	2
4269	4229	4228	4230	4	180.000	10.460	2
4271	4231	4230	4232	4	180.000	10.460	2
4272	4232	4227	4231	4	180.000	10.460	2
4284	4243	4203	4242	4	180.000	10.460	2
4283	4242	4206	4243	4	180.000	10.460	2
4270	4230	4229	4231	4	180.000	10.460	2
4259	4202	4190	4201	4	180.000	10.460	2
4263	4208	4207	4209	4	180.000	10.460	2
4266	4213	4212	4214	4	180.000	10.460	2
4265	4212	4211	4213	4	180.000	10.460	2
4267	4214	4213	4215	4	180.000	10.460	2
4262	4207	4206	4208	4	180.000	10.460	2
4225	4219	4216	4220	4	180.000	10.460	2
4300	4294	4293	4295	4	180.000	10.460	2
4301	4293	4292	4294	4	180.000	10.460	2
4342	4306	4305	4307	4	180.000	10.460	2
4299	4297	4296	4298	4	180.0	0.0	2
4332	4327	4326	4328	4	180.000	10.460	2
4343	4303	4286	4304	4	180.000	10.460	2
4302	4290	4289	4291	4	180.000	10.460	2
4337	4311	4310	4312	4	180.000	10.460	2
4341	4309	4308	4310	4	180.000	10.460	2
4326	4315	4314	4316	4	180.000	10.460	2
4319	4316	4315	4317	4	180.000	10.460	2
4323	4320	4319	4321	4	180.000	10.460	2
4364	4310	4309	4311	4	180.000	10.460	2
4357	4300	4294	4299	4	180.000	10.460	2
4353	4295	4294	4296	4	180.000	10.460	2
4358	4301	4293	4302	4	180.000	10.460	2
4352	4292	4291	4293	4	180.000	10.460	2
4354	4296	4295	4297	4	180.000	10.460	2
4351	4291	4290	4292	4	180.000	10.460	2
4360	4304	4303	4305	4	180.000	10.460	2
4361	4305	4304	4306	4	180.000	10.460	2
4368	4328	4327	4329	4	180.000	10.460	2
4356	4299	4297	4300	4	180.000	10.460	2
4369	4329	4328	4330	4	180.000	10.460	2
4371	4331	4330	4332	4	180.000	10.460	2
4372	4332	4327	4331	4	180.000	10.460	2
4384	4343	4303	4342	4	180.000	10.460	2
4383	4342	4306	4343	4	180.000	10.460	2
4370	4330	4329	4331	4	180.000	10.460	2
4359	4302	4290	4301	4	180.000	10.460	2
4363	4308	4307	4309	4	180.000	10.460	2
4366	4313	4312	4314	4	180.000	10.460	2
4365	4312	4311	4313	4	180.000	10.460	2
4367	4314	4313	4315	4	180.000	10.460	2
4362	4307	4306	4308	4	180.000	10.460	2
4325	4319	4316	4320	4	180.000	10.460	2
4400	4394	4393	4395	4	180.000	10.460	2
4401	4393	4392	4394	4	180.000	10.460	2
4442	4406	4405	4407	4	180.000	10.460	2
4399	4397	4396	4398	4	180.0	0.0	2
4432	4427	4426	4428	4	180.000	10.460	2
4443	4403	4386	4404	4	180.000	10.460	2
4402	4390	4389	4391	4	180.000	10.460	2
4437	4411	4410	4412	4	180.000	10.460	2
4441	4409	4408	4410	4	180.000	10.460	2
4426	4415	4414	4416	4	180.000	10.460	2
4419	4416	4415	4417	4	180.000	10.460	2
4423	4420	4419	4421	4	180.000	10.460	2
4464	4410	4409	4411	4	180.000	10.460	2
4457	4400	4394	4399	4	180.000	10.460	2
4453	4395	4394	4396	4	180.000	10.460	2
4458	4401	4393	4402	4	180.000	10.460	2
4452	4392	4391	4393	4	180.000	10.460	2
4454	4396	4395	4397	4	180.000	10.460	2
4451	4391	4390	4392	4	180.000	10.460	2
4460	4404	4403	4405	4	180.000	10.460	2
4461	4405	4404	4406	4	180.000	10.460	2
4468	4428	4427	4429	4	180.000	10.460	2
4456	4399	4397	4400	4	180.000	10.460	2
4469	4429	4428	4430	4	180.000	10.460	2
4471	4431	4430	4432	4	180.000	10.460	2
4472	4432	4427	4431	4	180.000	10.460	2
4484	4443	4403	4442	4	180.000	10.460	2
4483	4442	4406	4443	4	180.000	10.460	2
4470	4430	4429	4431	4	180.000	10.460	2
4459	4402	4390	4401	4	180.000	10.460	2
4463	4408	4407	4409	4	180.000	10.460	2
4466	4413	4412	4414	4	180.000	10.460	2
4465	4412	4411	4413	4	180.000	10.460	2
4467	4414	4413	4415	4	180.000	10.460	2
4462	4407	4406	4408	4	180.000	10.460	2
4425	4419	4416	4420	4	180.000	10.460	2
4500	4494	4493	4495	4	180.000	10.460	2
4501	4493	4492	4494	4	180.000	10.460	2
4542	4506	4505	4507	4	180.000	10.460	2
4499	4497	4496	4498	4	180.0	0.0	2
4532	4527	4526	4528	4	180.000	10.460	2
4543	4503	4486	4504	4	180.000	10.460	2
4502	4490	4489	4491	4	180.000	10.460	2
4537	4511	4510	4512	4	180.000	10.460	2
4541	4509	4508	4510	4	180.000	10.460	2
4526	4515	4514	4516	4	180.000	10.460	2
4519	4516	4515	4517	4	180.000	10.460	2
4523	4520	4519	4521	4	180.000	10.460	2
4564	4510	4509	4511	4	180.000	10.460	2
4557	4500	4494	4499	4	180.000	10.460	2
4553	4495	4494	4496	4	180.000	10.460	2
4558	4501	4493	4502	4	180.000	10.460	2
4552	4492	4491	4493	4	180.000	10.460	2
4554	4496	4495	4497	4	180.000	10.460	2
4551	4491	4490	4492	4	180.000	10.460	2
4560	4504	4503	4505	4	180.000	10.460	2
4561	4505	4504	4506	4	180.000	10.460	2
4568	4528	4527	4529	4	180.000	10.460	2
4556	4499	4497	4500	4	180.000	10.460	2
4569	4529	4528	4530	4	180.000	10.460	2
4571	4531	4530	4532	4	180.000	10.460	2
4572	4532	4527	4531	4	180.000	10.460	2
4584	4543	4503	4542	4	180.000	10.460	2
4583	4542	4506	4543	4	180.000	10.460	2
4570	4530	4529	4531	4	180.000	10.460	2
4559	4502	4490	4501	4	180.000	10.460	2
4563	4508	4507	4509	4	180.000	10.460	2
4566	4513	4512	4514	4	180.000	10.460	2
4565	4512	4511	4513	4	180.000	10.460	2
4567	4514	4513	4515	4	180.000	10.460	2
4562	4507	4506	4508	4	180.000	10.460	2
4525	4519	4516	4520	4	180.000	10.460	2
4600	4594	4593	4595	4	180.000	10.460	2
4601	4593	4592	4594	4	180.000	10.460	2
4642	4606	4605	4607	4	180.000	10.460	2
4599	4597	4596	4598	4	180.0	0.0	2
4632	4627	4626	4628	4	180.000	10.460	2
4643	4603	4586	4604	4	180.000	10.460	2
4602	4590	4589	4591	4	180.000	10.460	2
4637	4611	4610	4612	4	180.000	10.460	2
4641	4609	4608	4610	4	180.000	10.460	2
4626	4615	4614	4616	4	180.000	10.460	2
4619	4616	4615	4617	4	180.000	10.460	2
4623	4620	4619	4621	4	180.000	10.460	2
4664	4610	4609	4611	4	180.000	10.460	2
4657	4600	4594	4599	4	180.000	10.460	2
4653	4595	4594	4596	4	180.000	10.460	2
4658	4601	4593	4602	4	180.000	10.460	2
4652	4592	4591	4593	4	180.000	10.460	2
4654	4596	4595	4597	4	180.000	10.460	2
4651	4591	4590	4592	4	180.000	10.460	2
4660	4604	4603	4605	4	180.000	10.460	2
4661	4605	4604	4606	4	180.000	10.460	2
4668	4628	4627	4629	4	180.000	10.460	2
4656	4599	4597	4600	4	180.000	10.460	2
4669	4629	4628	4630	4	180.000	10.460	2
4671	4631	4630	4632	4	180.000	10.460	2
4672	4632	4627	4631	4	180.000	10.460	2
4684	4643	4603	4642	4	180.000	10.460	2
4683	4642	4606	4643	4	180.000	10.460	2
4670	4630	4629	4631	4	180.000	10.460	2
4659	4602	4590	4601	4	180.000	10.460	2
4663	4608	4607	4609	4	180.000	10.460	2
4666	4613	4612	4614	4	180.000	10.460	2
4665	4612	4611	4613	4	180.000	10.460	2
4667	4614	4613	4615	4	180.000	10.460	2
4662	4607	4606	4608	4	180.000	10.460	2
4625	4619	4616	4620	4	180.000	10.460	2
4700	4694	4693	4695	4	180.000	10.460	2
4701	4693	4692	4694	4	180.000	10.460	2
4742	4706	4705	4707	4	180.000	10.460	2
4699	4697	4696	4698	4	180.0	0.0	2
4732	4727	4726	4728	4	180.000	10.460	2
4743	4703	4686	4704	4	180.000	10.460	2
4702	4690	4689	4691	4	180.000	10.460	2
4737	4711	4710	4712	4	180.000	10.460	2
4741	4709	4708	4710	4	180.000	10.460	2
4726	4715	4714	4716	4	180.000	10.460	2
4719	4716	4715	4717	4	180.000	10.460	2
4723	4720	4719	4721	4	180.000	10.460	2
4764	4710	4709	4711	4	180.000	10.460	2
4757	4700	4694	4699	4	180.000	10.460	2
4753	4695	4694	4696	4	180.000	10.460	2
4758	4701	4693	4702	4	180.000	10.460	2
4752	4692	4691	4693	4	180.000	10.460	2
4754	4696	4695	4697	4	180.000	10.460	2
4751	4691	4690	4692	4	180.000	10.460	2
4760	4704	4703	4705	4	180.000	10.460	2
4761	4705	4704	4706	4	180.000	10.460	2
4768	4728	4727	4729	4	180.000	10.460	2
4756	4699	4697	4700	4	180.000	10.460	2
4769	4729	4728	4730	4	180.000	10.460	2
4771	4731	4730	4732	4	180.000	10.460	2
4772	4732	4727	4731	4	180.000	10.460	2
4784	4743	4703	4742	4	180.000	10.460	2
4783	4742	4706	4743	4	180.000	10.460	2
4770	4730	4729	4731	4	180.000	10.460	2
4759	4702	4690	4701	4	180.000	10.460	2
4763	4708	4707	4709	4	180.000	10.460	2
4766	4713	4712	4714	4	180.000	10.460	2
4765	4712	4711	4713	4	180.000	10.460	2
4767	4714	4713	4715	4	180.000	10.460	2
4762	4707	4706	4708	4	180.000	10.460	2
4725	4719	4716	4720	4	180.000	10.460	2
4800	4794	4793	4795	4	180.000	10.460	2
4801	4793	4792	4794	4	180.000	10.460	2
4842	4806	4805	4807	4	180.000	10.460	2
4799	4797	4796	4798	4	180.0	0.0	2
4832	4827	4826	4828	4	180.000	10.460	2
4843	4803	4786	4804	4	180.000	10.460	2
4802	4790	4789	4791	4	180.000	10.460	2
4837	4811	4810	4812	4	180.000	10.460	2
4841	4809	4808	4810	4	180.000	10.460	2
4826	4815	4814	4816	4	180.000	10.460	2
4819	4816	4815	4817	4	180.000	10.460	2
4823	4820	4819	4821	4	180.000	10.460	2
4864	4810	4809	4811	4	180.000	10.460	2
4857	4800	4794	4799	4	180.000	10.460	2
4853	4795	4794	4796	4	180.000	10.460	2
4858	4801	4793	4802	4	180.000	10.460	2
4852	4792	4791	4793	4	180.000	10.460	2
4854	4796	4795	4797	4	180.000	10.460	2
4851	4791	4790	4792	4	180.000	10.460	2
4860	4804	4803	4805	4	180.000	10.460	2
4861	4805	4804	4806	4	180.000	10.460	2
4868	4828	4827	4829	4	180.000	10.460	2
4856	4799	4797	4800	4	180.000	10.460	2
4869	4829	4828	4830	4	180.000	10.460	2
4871	4831	4830	4832	4	180.000	10.460	2
4872	4832	4827	4831	4	180.000	10.460	2
4884	4843	4803	4842	4	180.000	10.460	2
4883	4842	4806	4843	4	180.000	10.460	2
4870	4830	4829	4831	4	180.000	10.460	2
4859	4802	4790	4801	4	180.000	10.460	2
4863	4808	4807	4809	4	180.000	10.460	2
4866	4813	4812	4814	4	180.000	10.460	2
4865	4812	4811	4813	4	180.000	10.460	2
4867	4814	4813	4815	4	180.000	10.460	2
4862	4807	4806	4808	4	180.000	10.460	2
4825	4819	4816	4820	4	180.000	10.460	2
4900	4894	4893	4895	4	180.000	10.460	2
4901	4893	4892	4894	4	180.000	10.460	2
4942	4906	4905	4907	4	180.000	10.460	2
4899	4897	4896	4898	4	180.0	0.0	2
4932	4927	4926	4928	4	180.000	10.460	2
4943	4903	4886	4904	4	180.000	10.460	2
4902	4890	4889	4891	4	180.000	10.460	2
4937	4911	4910	4912	4	180.000	10.460	2
4941	4909	4908	4910	4	180.000	10.460	2
4926	4915	4914	4916	4	180.000	10.460	2
4919	4916	4915	4917	4	180.000	10.460	2
4923	4920	4919	4921	4	180.000	10.460	2
4964	4910	4909	4911	4	180.000	10.460	2
4957	4900	4894	4899	4	180.000	10.460	2
4953	4895	4894	4896	4	180.000	10.460	2
4958	4901	4893	4902	4	180.000	10.460	2
4952	4892	4891	4893	4	180.000	10.460	2
4954	4896	4895	4897	4	180.000	10.460	2
4951	4891	4890	4892	4	180.000	10.460	2
4960	4904	4903	4905	4	180.000	10.460	2
4961	4905	4904	4906	4	180.000	10.460	2
4968	4928	4927	4929	4	180.000	10.460	2
4956	4899	4897	4900	4	180.000	10.460	2
4969	4929	4928	4930	4	180.000	10.460	2
4971	4931	4930	4932	4	180.000	10.460	2
4972	4932	4927	4931	4	180.000	10.460	2
4984	4943	4903	4942	4	180.000	10.460	2
4983	4942	4906	4943	4	180.000	10.460	2
4970	4930	4929	4931	4	180.000	10.460	2
4959	4902	4890	4901	4	180.000	10.460	2
4963	4908	4907	4909	4	180.000	10.460	2
4966	4913	4912	4914	4	180.000	10.460	2
4965	4912	4911	4913	4	180.000	10.460	2
4967	4914	4913	4915	4	180.000	10.460	2
4962	4907	4906	4908	4	180.000	10.460	2
4925	4919	4916	4920	4	180.000	10.460	2
5000	4994	4993	4995	4	180.000	10.460	2
5001	4993	4992	4994	4	180.000	10.460	2
5042	5006	5005	5007	4	180.000	10.460	2
4999	4997	4996	4998	4	180.0	0.0	2
5032	5027	5026	5028	4	180.000	10.460	2
5043	5003	4986	5004	4	180.000	10.460	2
5002	4990	4989	4991	4	180.000	10.460	2
5037	5011	5010	5012	4	180.000	10.460	2
5041	5009	5008	5010	4	180.000	10.460	2
5026	5015	5014	5016	4	180.000	10.460	2
5019	5016	5015	5017	4	180.000	10.460	2
5023	5020	5019	5021	4	180.000	10.460	2
5064	5010	5009	5011	4	180.000	10.460	2
5057	5000	4994	4999	4	180.000	10.460	2
5053	4995	4994	4996	4	180.000	10.460	2
5058	5001	4993	5002	4	180.000	10.460	2
5052	4992	4991	4993	4	180.000	10.460	2
5054	4996	4995	4997	4	180.000	10.460	2
5051	4991	4990	4992	4	180.000	10.460	2
5060	5004	5003	5005	4	180.000	10.460	2
5061	5005	5004	5006	4	180.000	10.460	2
5068	5028	5027	5029	4	180.000	10.460	2
5056	4999	4997	5000	4	180.000	10.460	2
5069	5029	5028	5030	4	180.000	10.460	2
5071	5031	5030	5032	4	180.000	10.460	2
5072	5032	5027	5031	4	180.000	10.460	2
5084	5043	5003	5042	4	180.000	10.460	2
5083	5042	5006	5043	4	180.000	10.460	2
5070	5030	5029	5031	4	180.000	10.460	2
5059	5002	4990	5001	4	180.000	10.460	2
5063	5008	5007	5009	4	180.000	10.460	2
5066	5013	5012	5014	4	180.000	10.460	2
5065	5012	5011	5013	4	180.000	10.460	2
5067	5014	5013	5015	4	180.000	10.460	2
5062	5007	5006	5008	4	180.000	10.460	2
5025	5019	5016	5020	4	180.000	10.460	2
5100	5094	5093	5095	4	180.000	10.460	2
5101	5093	5092	5094	4	180.000	10.460	2
5142	5106	5105	5107	4	180.000	10.460	2
5099	5097	5096	5098	4	180.0	0.0	2
5132	5127	5126	5128	4	180.000	10.460	2
5143	5103	5086	5104	4	180.000	10.460	2
5102	5090	5089	5091	4	180.000	10.460	2
5137	5111	5110	5112	4	180.000	10.460	2
5141	5109	5108	5110	4	180.000	10.460	2
5126	5115	5114	5116	4	180.000	10.460	2
5119	5116	5115	5117	4	180.000	10.460	2
5123	5120	5119	5121	4	180.000	10.460	2
5164	5110	5109	5111	4	180.000	10.460	2
5157	5100	5094	5099	4	180.000	10.460	2
5153	5095	5094	5096	4	180.000	10.460	2
5158	5101	5093	5102	4	180.000	10.460	2
5152	5092	5091	5093	4	180.000	10.460	2
5154	5096	5095	5097	4	180.000	10.460	2
5151	5091	5090	5092	4	180.000	10.460	2
5160	5104	5103	5105	4	180.000	10.460	2
5161	5105	5104	5106	4	180.000	10.460	2
5168	5128	5127	5129	4	180.000	10.460	2
5156	5099	5097	5100	4	180.000	10.460	2
5169	5129	5128	5130	4	180.000	10.460	2
5171	5131	5130	5132	4	180.000	10.460	2
5172	5132	5127	5131	4	180.000	10.460	2
5184	5143	5103	5142	4	180.000	10.460	2
5183	5142	5106	5143	4	180.000	10.460	2
5170	5130	5129	5131	4	180.000	10.460	2
5159	5102	5090	5101	4	180.000	10.460	2
5163	5108	5107	5109	4	180.000	10.460	2
5166	5113	5112	5114	4	180.000	10.460	2
5165	5112	5111	5113	4	180.000	10.460	2
5167	5114	5113	5115	4	180.000	10.460	2
5162	5107	5106	5108	4	180.000	10.460	2
5125	5119	5116	5120	4	180.000	10.460	2
5200	5194	5193	5195	4	180.000	10.460	2
5201	5193	5192	5194	4	180.000	10.460	2
5242	5206	5205	5207	4	180.000	10.460	2
5199	5197	5196	5198	4	180.0	0.0	2
5232	5227	5226	5228	4	180.000	10.460	2
5243	5203	5186	5204	4	180.000	10.460	2
5202	5190	5189	5191	4	180.000	10.460	2
5237	5211	5210	5212	4	180.000	10.460	2
5241	5209	5208	5210	4	180.000	10.460	2
5226	5215	5214	5216	4	180.000	10.460	2
5219	5216	5215	5217	4	180.000	10.460	2
5223	5220	5219	5221	4	180.000	10.460	2
5264	5210	5209	5211	4	180.000	10.460	2
5257	5200	5194	5199	4	180.000	10.460	2
5253	5195	5194	5196	4	180.000	10.460	2
5258	5201	5193	5202	4	180.000	10.460	2
5252	5192	5191	5193	4	180.000	10.460	2
5254	5196	5195	5197	4	180.000	10.460	2
5251	5191	5190	5192	4	180.000	10.460	2
5260	5204	5203	5205	4	180.000	10.460	2
5261	5205	5204	5206	4	180.000	10.460	2
5268	5228	5227	5229	4	180.000	10.460	2
5256	5199	5197	5200	4	180.000	10.460	2
5269	5229	5228	5230	4	180.000	10.460	2
5271	5231	5230	5232	4	180.000	10.460	2
5272	5232	5227	5231	4	180.000	10.460	2
5284	5243	5203	5242	4	180.000	10.460	2
5283	5242	5206	5243	4	180.000	10.460	2
5270	5230	5229	5231	4	180.000	10.460	2
5259	5202	5190	5201	4	180.000	10.460	2
5263	5208	5207	5209	4	180.000	10.460	2
5266	5213	5212	5214	4	180.000	10.460	2
5265	5212	5211	5213	4	180.000	10.460	2
5267	5214	5213	5215	4	180.000	10.460	2
5262	5207	5206	5208	4	180.000	10.460	2
5225	5219	5216	5220	4	180.000	10.460	2
5300	5294	5293	5295	4	180.000	10.460	2
5301	5293	5292	5294	4	180.000	10.460	2
5342	5306	5305	5307	4	180.000	10.460	2
5299	5297	5296	5298	4	180.0	0.0	2
5332	5327	5326	5328	4	180.000	10.460	2
5343	5303	5286	5304	4	180.000	10.460	2
5302	5290	5289	5291	4	180.000	10.460	2
5337	5311	5310	5312	4	180.000	10.460	2
5341	5309	5308	5310	4	180.000	10.460	2
5326	5315	5314	5316	4	180.000	10.460	2
5319	5316	5315	5317	4	180.000	10.460	2
5323	5320	5319	5321	4	180.000	10.460	2
5364	5310	5309	5311	4	180.000	10.460	2
5357	5300	5294	5299	4	180.000	10.460	2
5353	5295	5294	5296	4	180.000	10.460	2
5358	5301	5293	5302	4	180.000	10.460	2
5352	5292	5291	5293	4	180.000	10.460	2
5354	5296	5295	5297	4	180.000	10.460	2
5351	5291	5290	5292	4	180.000	10.460	2
5360	5304	5303	5305	4	180.000	10.460	2
5361	5305	5304	5306	4	180.000	10.460	2
5368	5328	5327	5329	4	180.000	10.460	2
5356	5299	5297	5300	4	180.000	10.460	2
5369	5329	5328	5330	4	180.000	10.460	2
5371	5331	5330	5332	4	180.000	10.460	2
5372	5332	5327	5331	4	180.000	10.460	2
5384	5343	5303	5342	4	180.000	10.460	2
5383	5342	5306	5343	4	180.000	10.460	2
5370	5330	5329	5331	4	180.000	10.460	2
5359	5302	5290	5301	4	180.000	10.460	2
5363	5308	5307	5309	4	180.000	10.460	2
5366	5313	5312	5314	4	180.000	10.460	2
5365	5312	5311	5313	4	180.000	10.460	2
5367	5314	5313	5315	4	180.000	10.460	2
5362	5307	5306	5308	4	180.000	10.460	2
5325	5319	5316	5320	4	180.000	10.460	2
5400	5394	5393	5395	4	180.000	10.460	2
5401	5393	5392	5394	4	180.000	10.460	2
5442	5406	5405	5407	4	180.000	10.460	2
5399	5397	5396	5398	4	180.0	0.0	2
5432	5427	5426	5428	4	180.000	10.460	2
5443	5403	5386	5404	4	180.000	10.460	2
5402	5390	5389	5391	4	180.000	10.460	2
5437	5411	5410	5412	4	180.000	10.460	2
5441	5409	5408	5410	4	180.000	10.460	2
5426	5415	5414	5416	4	180.000	10.460	2
5419	5416	5415	5417	4	180.000	10.460	2
5423	5420	5419	5421	4	180.000	10.460	2
5464	5410	5409	5411	4	180.000	10.460	2
5457	5400	5394	5399	4	180.000	10.460	2
5453	5395	5394	5396	4	180.000	10.460	2
5458	5401	5393	5402	4	180.000	10.460	2
5452	5392	5391	5393	4	180.000	10.460	2
5454	5396	5395	5397	4	180.000	10.460	2
5451	5391	5390	5392	4	180.000	10.460	2
5460	5404	5403	5405	4	180.000	10.460	2
5461	5405	5404	5406	4	180.000	10.460	2
5468	5428	5427	5429	4	180.000	10.460	2
5456	5399	5397	5400	4	180.000	10.460	2
5469	5429	5428	5430	4	180.000	10.460	2
5471	5431	5430	5432	4	180.000	10.460	2
5472	5432	5427	5431	4	180.000	10.460	2
5484	5443	5403	5442	4	180.000	10.460	2
5483	5442	5406	5443	4	180.000	10.460	2
5470	5430	5429	5431	4	180.000	10.460	2
5459	5402	5390	5401	4	180.000	10.460	2
5463	5408	5407	5409	4	180.000	10.460	2
5466	5413	5412	5414	4	180.000	10.460	2
5465	5412	5411	5413	4	180.000	10.460	2
5467	5414	5413	5415	4	180.000	10.460	2
5462	5407	5406	5408	4	180.000	10.460	2
5425	5419	5416	5420	4	180.000	10.460	2
5500	5494	5493	5495	4	180.000	10.460	2
5501	5493	5492	5494	4	180.000	10.460	2
5542	5506	5505	5507	4	180.000	10.460	2
5499	5497	5496	5498	4	180.0	0.0	2
5532	5527	5526	5528	4	180.000	10.460	2
5543	5503	5486	5504	4	180.000	10.460	2
5502	5490	5489	5491	4	180.000	10.460	2
5537	5511	5510	5512	4	180.000	10.460	2
5541	5509	5508	5510	4	180.000	10.460	2
5526	5515	5514	5516	4	180.000	10.460	2
5519	5516	5515	5517	4	180.000	10.460	2
5523	5520	5519	5521	4	180.000	10.460	2
5564	5510	5509	5511	4	180.000	10.460	2
5557	5500	5494	5499	4	180.000	10.460	2
5553	5495	5494	5496	4	180.000	10.460	2
5558	5501	5493	5502	4	180.000	10.460	2
5552	5492	5491	5493	4	180.000	10.460	2
5554	5496	5495	5497	4	180.000	10.460	2
5551	5491	5490	5492	4	180.000	10.460	2
5560	5504	5503	5505	4	180.000	10.460	2
5561	5505	5504	5506	4	180.000	10.460	2
5568	5528	5527	5529	4	180.000	10.460	2
5556	5499	5497	5500	4	180.000	10.460	2
5569	5529	5528	5530	4	180.000	10.460	2
5571	5531	5530	5532	4	180.000	10.460	2
5572	5532	5527	5531	4	180.000	10.460	2
5584	5543	5503	5542	4	180.000	10.460	2
5583	5542	5506	5543	4	180.000	10.460	2
5570	5530	5529	5531	4	180.000	10.460	2
5559	5502	5490	5501	4	180.000	10.460	2
5563	5508	5507	5509	4	180.000	10.460	2
5566	5513	5512	5514	4	180.000	10.460	2
5565	5512	5511	5513	4	180.000	10.460	2
5567	5514	5513	5515	4	180.000	10.460	2
5562	5507	5506	5508	4	180.000	10.460	2
5525	5519	5516	5520	4	180.000	10.460	2
5600	5594	5593	5595	4	180.000	10.460	2
5601	5593	5592	5594	4	180.000	10.460	2
5642	5606	5605	5607	4	180.000	10.460	2
5599	5597	5596	5598	4	180.0	0.0	2
5632	5627	5626	5628	4	180.000	10.460	2
5643	5603	5586	5604	4	180.000	10.460	2
5602	5590	5589	5591	4	180.000	10.460	2
5637	5611	5610	5612	4	180.000	10.460	2
5641	5609	5608	5610	4	180.000	10.460	2
5626	5615	5614	5616	4	180.000	10.460	2
5619	5616	5615	5617	4	180.000	10.460	2
5623	5620	5619	5621	4	180.000	10.460	2
5664	5610	5609	5611	4	180.000	10.460	2
5657	5600	5594	5599	4	180.000	10.460	2
5653	5595	5594	5596	4	180.000	10.460	2
5658	5601	5593	5602	4	180.000	10.460	2
5652	5592	5591	5593	4	180.000	10.460	2
5654	5596	5595	5597	4	180.000	10.460	2
5651	5591	5590	5592	4	180.000	10.460	2
5660	5604	5603	5605	4	180.000	10.460	2
5661	5605	5604	5606	4	180.000	10.460	2
5668	5628	5627	5629	4	180.000	10.460	2
5656	5599	5597	5600	4	180.000	10.460	2
5669	5629	5628	5630	4	180.000	10.460	2
5671	5631	5630	5632	4	180.000	10.460	2
5672	5632	5627	5631	4	180.000	10.460	2
5684	5643	5603	5642	4	180.000	10.460	2
5683	5642	5606	5643	4	180.000	10.460	2
5670	5630	5629	5631	4	180.000	10.460	2
5659	5602	5590	5601	4	180.000	10.460	2
5663	5608	5607	5609	4	180.000	10.460	2
5666	5613	5612	5614	4	180.000	10.460	2
5665	5612	5611	5613	4	180.000	10.460	2
5667	5614	5613	5615	4	180.000	10.460	2
5662	5607	5606	5608	4	180.000	10.460	2
5625	5619	5616	5620	4	180.000	10.460	2
5700	5694	5693	5695	4	180.000	10.460	2
5701	5693	5692	5694	4	180.000	10.460	2
5742	5706	5705	5707	4	180.000	10.460	2
5699	5697	5696	5698	4	180.0	0.0	2
5732	5727	5726	5728	4	180.000	10.460	2
5743	5703	5686	5704	4	180.000	10.460	2
5702	5690	5689	5691	4	180.000	10.460	2
5737	5711	5710	5712	4	180.000	10.460	2
5741	5709	5708	5710	4	180.000	10.460	2
5726	5715	5714	5716	4	180.000	10.460	2
5719	5716	5715	5717	4	180.000	10.460	2
5723	5720	5719	5721	4	180.000	10.460	2
5764	5710	5709	5711	4	180.000	10.460	2
5757	5700	5694	5699	4	180.000	10.460	2
5753	5695	5694	5696	4	180.000	10.460	2
5758	5701	5693	5702	4	180.000	10.460	2
5752	5692	5691	5693	4	180.000	10.460	2
5754	5696	5695	5697	4	180.000	10.460	2
5751	5691	5690	5692	4	180.000	10.460	2
5760	5704	5703	5705	4	180.000	10.460	2
5761	5705	5704	5706	4	180.000	10.460	2
5768	5728	5727	5729	4	180.000	10.460	2
5756	5699	5697	5700	4	180.000	10.460	2
5769	5729	5728	5730	4	180.000	10.460	2
5771	5731	5730	5732	4	180.000	10.460	2
5772	5732	5727	5731	4	180.000	10.460	2
5784	5743	5703	5742	4	180.000	10.460	2
5783	5742	5706	5743	4	180.000	10.460	2
5770	5730	5729	5731	4	180.000	10.460	2
5759	5702	5690	5701	4	180.000	10.460	2
5763	5708	5707	5709	4	180.000	10.460	2
5766	5713	5712	5714	4	180.000	10.460	2
5765	5712	5711	5713	4	180.000	10.460	2
5767	5714	5713	5715	4	180.000	10.460	2
5762	5707	5706	5708	4	180.000	10.460	2
5725	5719	5716	5720	4	180.000	10.460	2
5800	5794	5793	5795	4	180.000	10.460	2
5801	5793	5792	5794	4	180.000	10.460	2
5842	5806	5805	5807	4	180.000	10.460	2
5799	5797	5796	5798	4	180.0	0.0	2
5832	5827	5826	5828	4	180.000	10.460	2
5843	5803	5786	5804	4	180.000	10.460	2
5802	5790	5789	5791	4	180.000	10.460	2
5837	5811	5810	5812	4	180.000	10.460	2
5841	5809	5808	5810	4	180.000	10.460	2
5826	5815	5814	5816	4	180.000	10.460	2
5819	5816	5815	5817	4	180.000	10.460	2
5823	5820	5819	5821	4	180.000	10.460	2
5864	5810	5809	5811	4	180.000	10.460	2
5857	5800	5794	5799	4	180.000	10.460	2
5853	5795	5794	5796	4	180.000	10.460	2
5858	5801	5793	5802	4	180.000	10.460	2
5852	5792	5791	5793	4	180.000	10.460	2
5854	5796	5795	5797	4	180.000	10.460	2
5851	5791	5790	5792	4	180.000	10.460	2
5860	5804	5803	5805	4	180.000	10.460	2
5861	5805	5804	5806	4	180.000	10.460	2
5868	5828	5827	5829	4	180.000	10.460	2
5856	5799	5797	5800	4	180.000	10.460	2
5869	5829	5828	5830	4	180.000	10.460	2
5871	5831	5830	5832	4	180.000	10.460	2
5872	5832	5827	5831	4	180.000	10.460	2
5884	5843	5803	5842	4	180.000	10.460	2
5883	5842	5806	5843	4	180.000	10.460	2
5870	5830	5829	5831	4	180.000	10.460	2
5859	5802	5790	5801	4	180.000	10.460	2
5863	5808	5807	5809	4	180.000	10.460	2
5866	5813	5812	5814	4	180.000	10.460	2
5865	5812	5811	5813	4	180.000	10.460	2
5867	5814	5813	5815	4	180.000	10.460	2
5862	5807	5806	5808	4	180.000	10.460	2
5825	5819	5816	5820	4	180.000	10.460	2
5900	5894	5893	5895	4	180.000	10.460	2
5901	5893	5892	5894	4	180.000	10.460	2
5942	5906	5905	5907	4	180.000	10.460	2
5899	5897	5896	5898	4	180.0	0.0	2
5932	5927	5926	5928	4	180.000	10.460	2
5943	5903	5886	5904	4	180.000	10.460	2
5902	5890	5889	5891	4	180.000	10.460	2
5937	5911	5910	5912	4	180.000	10.460	2
5941	5909	5908	5910	4	180.000	10.460	2
5926	5915	5914	5916	4	180.000	10.460	2
5919	5916	5915	5917	4	180.000	10.460	2
5923	5920	5919	5921	4	180.000	10.460	2
5964	5910	5909	5911	4	180.000	10.460	2
5957	5900	5894	5899	4	180.000	10.460	2
5953	5895	5894	5896	4	180.000	10.460	2
5958	5901	5893	5902	4	180.000	10.460	2
5952	5892	5891	5893	4	180.000	10.460	2
5954	5896	5895	5897	4	180.000	10.460	2
5951	5891	5890	5892	4	180.000	10.460	2
5960	5904	5903	5905	4	180.000	10.460	2
5961	5905	5904	5906	4	180.000	10.460	2
5968	5928	5927	5929	4	180.000	10.460	2
5956	5899	5897	5900	4	180.000	10.460	2
5969	5929	5928	5930	4	180.000	10.460	2
5971	5931	5930	5932	4	180.000	10.460	2
5972	5932	5927	5931	4	180.000	10.460	2
5984	5943	5903	5942	4	180.000	10.460	2
5983	5942	5906	5943	4	180.000	10.460	2
5970	5930	5929	5931	4	180.000	10.460	2
5959	5902	5890	5901	4	180.000	10.460	2
5963	5908	5907	5909	4	180.000	10.460	2
5966	5913	5912	5914	4	180.000	10.460	2
5965	5912	5911	5913	4	180.000	10.460	2
5967	5914	5913	5915	4	180.000	10.460	2
5962	5907	5906	5908	4	180.000	10.460	2
5925	5919	5916	5920	4	180.000	10.460	2
6000	5994	5993	5995	4	180.000	10.460	2
6001	5993	5992	5994	4	180.000	10.460	2
6042	6006	6005	6007	4	180.000	10.460	2
5999	5997	5996	5998	4	180.0	0.0	2
6032	6027	6026	6028	4	180.000	10.460	2
6043	6003	5986	6004	4	180.000	10.460	2
6002	5990	5989	5991	4	180.000	10.460	2
6037	6011	6010	6012	4	180.000	10.460	2
6041	6009	6008	6010	4	180.000	10.460	2
6026	6015	6014	6016	4	180.000	10.460	2
6019	6016	6015	6017	4	180.000	10.460	2
6023	6020	6019	6021	4	180.000	10.460	2
6064	6010	6009	6011	4	180.000	10.460	2
6057	6000	5994	5999	4	180.000	10.460	2
6053	5995	5994	5996	4	180.000	10.460	2
6058	6001	5993	6002	4	180.000	10.460	2
6052	5992	5991	5993	4	180.000	10.460	2
6054	5996	5995	5997	4	180.000	10.460	2
6051	5991	5990	5992	4	180.000	10.460	2
6060	6004	6003	6005	4	180.000	10.460	2
6061	6005	6004	6006	4	180.000	10.460	2
6068	6028	6027	6029	4	180.000	10.460	2
6056	5999	5997	6000	4	180.000	10.460	2
6069	6029	6028	6030	4	180.000	10.460	2
6071	6031	6030	6032	4	180.000	10.460	2
6072	6032	6027	6031	4	180.000	10.460	2
6084	6043	6003	6042	4	180.000	10.460	2
6083	6042	6006	6043	4	180.000	10.460	2
6070	6030	6029	6031	4	180.000	10.460	2
6059	6002	5990	6001	4	180.000	10.460	2
6063	6008	6007	6009	4	180.000	10.460	2
6066	6013	6012	6014	4	180.000	10.460	2
6065	6012	6011	6013	4	180.000	10.460	2
6067	6014	6013	6015	4	180.000	10.460	2
6062	6007	6006	6008	4	180.000	10.460	2
6025	6019	6016	6020	4	180.000	10.460	2
6100	6094	6093	6095	4	180.000	10.460	2
6101	6093	6092	6094	4	180.000	10.460	2
6142	6106	6105	6107	4	180.000	10.460	2
6099	6097	6096	6098	4	180.0	0.0	2
6132	6127	6126	6128	4	180.000	10.460	2
6143	6103	6086	6104	4	180.000	10.460	2
6102	6090	6089	6091	4	180.000	10.460	2
6137	6111	6110	6112	4	180.000	10.460	2
6141	6109	6108	6110	4	180.000	10.460	2
6126	6115	6114	6116	4	180.000	10.460	2
6119	6116	6115	6117	4	180.000	10.460	2
6123	6120	6119	6121	4	180.000	10.460	2
6164	6110	6109	6111	4	180.000	10.460	2
6157	6100	6094	6099	4	180.000	10.460	2
6153	6095	6094	6096	4	180.000	10.460	2
6158	6101	6093	6102	4	180.000	10.460	2
6152	6092	6091	6093	4	180.000	10.460	2
6154	6096	6095	6097	4	180.000	10.460	2
6151	6091	6090	6092	4	180.000	10.460	2
6160	6104	6103	6105	4	180.000	10.460	2
6161	6105	6104	6106	4	180.000	10.460	2
6168	6128	6127	6129	4	180.000	10.460	2
6156	6099	6097	6100	4	180.000	10.460	2
6169	6129	6128	6130	4	180.000	10.460	2
6171	6131	6130	6132	4	180.000	10.460	2
6172	6132	6127	6131	4	180.000	10.460	2
6184	6143	6103	6142	4	180.000	10.460	2
6183	6142	6106	6143	4	180.000	10.460	2
6170	6130	6129	6131	4	180.000	10.460	2
6159	6102	6090	6101	4	180.000	10.460	2
6163	6108	6107	6109	4	180.000	10.460	2
6166	6113	6112	6114	4	180.000	10.460	2
6165	6112	6111	6113	4	180.000	10.460	2
6167	6114	6113	6115	4	180.000	10.460	2
6162	6107	6106	6108	4	180.000	10.460	2
6125	6119	6116	6120	4	180.000	10.460	2
6200	6194	6193	6195	4	180.000	10.460	2
6201	6193	6192	6194	4	180.000	10.460	2
6242	6206	6205	6207	4	180.000	10.460	2
6199	6197	6196	6198	4	180.0	0.0	2
6232	6227	6226	6228	4	180.000	10.460	2
6243	6203	6186	6204	4	180.000	10.460	2
6202	6190	6189	6191	4	180.000	10.460	2
6237	6211	6210	6212	4	180.000	10.460	2
6241	6209	6208	6210	4	180.000	10.460	2
6226	6215	6214	6216	4	180.000	10.460	2
6219	6216	6215	6217	4	180.000	10.460	2
6223	6220	6219	6221	4	180.000	10.460	2
6264	6210	6209	6211	4	180.000	10.460	2
6257	6200	6194	6199	4	180.000	10.460	2
6253	6195	6194	6196	4	180.000	10.460	2
6258	6201	6193	6202	4	180.000	10.460	2
6252	6192	6191	6193	4	180.000	10.460	2
6254	6196	6195	6197	4	180.000	10.460	2
6251	6191	6190	6192	4	180.000	10.460	2
6260	6204	6203	6205	4	180.000	10.460	2
6261	6205	6204	6206	4	180.000	10.460	2
6268	6228	6227	6229	4	180.000	10.460	2
6256	6199	6197	6200	4	180.000	10.460	2
6269	6229	6228	6230	4	180.000	10.460	2
6271	6231	6230	6232	4	180.000	10.460	2
6272	6232	6227	6231	4	180.000	10.460	2
6284	6243	6203	6242	4	180.000	10.460	2
6283	6242	6206	6243	4	180.000	10.460	2
6270	6230	6229	6231	4	180.000	10.460	2
6259	6202	6190	6201	4	180.000	10.460	2
6263	6208	6207	6209	4	180.000	10.460	2
6266	6213	6212	6214	4	180.000	10.460	2
6265	6212	6211	6213	4	180.000	10.460	2
6267	6214	6213	6215	4	180.000	10.460	2
6262	6207	6206	6208	4	180.000	10.460	2
6225	6219	6216	6220	4	180.000	10.460	2
6300	6294	6293	6295	4	180.000	10.460	2
6301	6293	6292	6294	4	180.000	10.460	2
6342	6306	6305	6307	4	180.000	10.460	2
6299	6297	6296	6298	4	180.0	0.0	2
6332	6327	6326	6328	4	180.000	10.460	2
6343	6303	6286	6304	4	180.000	10.460	2
6302	6290	6289	6291	4	180.000	10.460	2
6337	6311	6310	6312	4	180.000	10.460	2
6341	6309	6308	6310	4	180.000	10.460	2
6326	6315	6314	6316	4	180.000	10.460	2
6319	6316	6315	6317	4	180.000	10.460	2
6323	6320	6319	6321	4	180.000	10.460	2
6364	6310	6309	6311	4	180.000	10.460	2
6357	6300	6294	6299	4	180.000	10.460	2
6353	6295	6294	6296	4	180.000	10.460	2
6358	6301	6293	6302	4	180.000	10.460	2
6352	6292	6291	6293	4	180.000	10.460	2
6354	6296	6295	6297	4	180.000	10.460	2
6351	6291	6290	6292	4	180.000	10.460	2
6360	6304	6303	6305	4	180.000	10.460	2
6361	6305	6304	6306	4	180.000	10.460	2
6368	6328	6327	6329	4	180.000	10.460	2
6356	6299	6297	6300	4	180.000	10.460	2
6369	6329	6328	6330	4	180.000	10.460	2
6371	6331	6330	6332	4	180.000	10.460	2
6372	6332	6327	6331	4	180.000	10.460	2
6384	6343	6303	6342	4	180.000	10.460	2
6383	6342	6306	6343	4	180.000	10.460	2
6370	6330	6329	6331	4	180.000	10.460	2
6359	6302	6290	6301	4	180.000	10.460	2
6363	6308	6307	6309	4	180.000	10.460	2
6366	6313	6312	6314	4	180.000	10.460	2
6365	6312	6311	6313	4	180.000	10.460	2
6367	6314	6313	6315	4	180.000	10.460	2
6362	6307	6306	6308	4	180.000	10.460	2
6325	6319	6316	6320	4	180.000	10.460	2
6400	6394	6393	6395	4	180.000	10.460	2
6401	6393	6392	6394	4	180.000	10.460	2
6442	6406	6405	6407	4	180.000	10.460	2
6399	6397	6396	6398	4	180.0	0.0	2
6432	6427	6426	6428	4	180.000	10.460	2
6443	6403	6386	6404	4	180.000	10.460	2
6402	6390	6389	6391	4	180.000	10.460	2
6437	6411	6410	6412	4	180.000	10.460	2
6441	6409	6408	6410	4	180.000	10.460	2
6426	6415	6414	6416	4	180.000	10.460	2
6419	6416	6415	6417	4	180.000	10.460	2
6423	6420	6419	6421	4	180.000	10.460	2
6464	6410	6409	6411	4	180.000	10.460	2
6457	6400	6394	6399	4	180.000	10.460	2
6453	6395	6394	6396	4	180.000	10.460	2
6458	6401	6393	6402	4	180.000	10.460	2
6452	6392	6391	6393	4	180.000	10.460	2
6454	6396	6395	6397	4	180.000	10.460	2
6451	6391	6390	6392	4	180.000	10.460	2
6460	6404	6403	6405	4	180.000	10.460	2
6461	6405	6404	6406	4	180.000	10.460	2
6468	6428	6427	6429	4	180.000	10.460	2
6456	6399	6397	6400	4	180.000	10.460	2
6469	6429	6428	6430	4	180.000	10.460	2
6471	6431	6430	6432	4	180.000	10.460	2
6472	6432	6427	6431	4	180.000	10.460	2
6484	6443	6403	6442	4	180.000	10.460	2
6483	6442	6406	6443	4	180.000	10.460	2
6470	6430	6429	6431	4	180.000	10.460	2
6459	6402	6390	6401	4	180.000	10.460	2
6463	6408	6407	6409	4	180.000	10.460	2
6466	6413	6412	6414	4	180.000	10.460	2
6465	6412	6411	6413	4	180.000	10.460	2
6467	6414	6413	6415	4	180.000	10.460	2
6462	6407	6406	6408	4	180.000	10.460	2
6425	6419	6416	6420	4	180.000	10.460	2
6500	6494	6493	6495	4	180.000	10.460	2
6501	6493	6492	6494	4	180.000	10.460	2
6542	6506	6505	6507	4	180.000	10.460	2
6499	6497	6496	6498	4	180.0	0.0	2
6532	6527	6526	6528	4	180.000	10.460	2
6543	6503	6486	6504	4	180.000	10.460	2
6502	6490	6489	6491	4	180.000	10.460	2
6537	6511	6510	6512	4	180.000	10.460	2
6541	6509	6508	6510	4	180.000	10.460	2
6526	6515	6514	6516	4	180.000	10.460	2
6519	6516	6515	6517	4	180.000	10.460	2
6523	6520	6519	6521	4	180.000	10.460	2
6564	6510	6509	6511	4	180.000	10.460	2
6557	6500	6494	6499	4	180.000	10.460	2
6553	6495	6494	6496	4	180.000	10.460	2
6558	6501	6493	6502	4	180.000	10.460	2
6552	6492	6491	6493	4	180.000	10.460	2
6554	6496	6495	6497	4	180.000	10.460	2
6551	6491	6490	6492	4	180.000	10.460	2
6560	6504	6503	6505	4	180.000	10.460	2
6561	6505	6504	6506	4	180.000	10.460	2
6568	6528	6527	6529	4	180.000	10.460	2
6556	6499	6497	6500	4	180.000	10.460	2
6569	6529	6528	6530	4	180.000	10.460	2
6571	6531	6530	6532	4	180.000	10.460	2
6572	6532	6527	6531	4	180.000	10.460	2
6584	6543	6503	6542	4	180.000	10.460	2
6583	6542	6506	6543	4	180.000	10.460	2
6570	6530	6529	6531	4	180.000	10.460	2
6559	6502	6490	6501	4	180.000	10.460	2
6563	6508	6507	6509	4	180.000	10.460	2
6566	6513	6512	6514	4	180.000	10.460	2
6565	6512	6511	6513	4	180.000	10.460	2
6567	6514	6513	6515	4	180.000	10.460	2
6562	6507	6506	6508	4	180.000	10.460	2
6525	6519	6516	6520	4	180.000	10.460	2
6600	6594	6593	6595	4	180.000	10.460	2
6601	6593	6592	6594	4	180.000	10.460	2
6642	6606	6605	6607	4	180.000	10.460	2
6599	6597	6596	6598	4	180.0	0.0	2
6632	6627	6626	6628	4	180.000	10.460	2
6643	6603	6586	6604	4	180.000	10.460	2
6602	6590	6589	6591	4	180.000	10.460	2
6637	6611	6610	6612	4	180.000	10.460	2
6641	6609	6608	6610	4	180.000	10.460	2
6626	6615	6614	6616	4	180.000	10.460	2
6619	6616	6615	6617	4	180.000	10.460	2
6623	6620	6619	6621	4	180.000	10.460	2
6664	6610	6609	6611	4	180.000	10.460	2
6657	6600	6594	6599	4	180.000	10.460	2
6653	6595	6594	6596	4	180.000	10.460	2
6658	6601	6593	6602	4	180.000	10.460	2
6652	6592	6591	6593	4	180.000	10.460	2
6654	6596	6595	6597	4	180.000	10.460	2
6651	6591	6590	6592	4	180.000	10.460	2
6660	6604	6603	6605	4	180.000	10.460	2
6661	6605	6604	6606	4	180.000	10.460	2
6668	6628	6627	6629	4	180.000	10.460	2
6656	6599	6597	6600	4	180.000	10.460	2
6669	6629	6628	6630	4	180.000	10.460	2
6671	6631	6630	6632	4	180.000	10.460	2
6672	6632	6627	6631	4	180.000	10.460	2
6684	6643	6603	6642	4	180.000	10.460	2
6683	6642	6606	6643	4	180.000	10.460	2
6670	6630	6629	6631	4	180.000	10.460	2
6659	6602	6590	6601	4	180.000	10.460	2
6663	6608	6607	6609	4	180.000	10.460	2
6666	6613	6612	6614	4	180.000	10.460	2
6665	6612	6611	6613	4	180.000	10.460	2
6667	6614	6613	6615	4	180.000	10.460	2
6662	6607	6606	6608	4	180.000	10.460	2
6625	6619	6616	6620	4	180.000	10.460	2
6700	6694	6693	6695	4	180.000	10.460	2
6701	6693	6692	6694	4	180.000	10.460	2
6742	6706	6705	6707	4	180.000	10.460	2
6699	6697	6696	6698	4	180.0	0.0	2
6732	6727	6726	6728	4	180.000	10.460	2
6743	6703	6686	6704	4	180.000	10.460	2
6702	6690	6689	6691	4	180.000	10.460	2
6737	6711	6710	6712	4	180.000	10.460	2
6741	6709	6708	6710	4	180.000	10.460	2
6726	6715	6714	6716	4	180.000	10.460	2
6719	6716	6715	6717	4	180.000	10.460	2
6723	6720	6719	6721	4	180.000	10.460	2
6764	6710	6709	6711	4	180.000	10.460	2
6757	6700	6694	6699	4	180.000	10.460	2
6753	6695	6694	6696	4	180.000	10.460	2
6758	6701	6693	6702	4	180.000	10.460	2
6752	6692	6691	6693	4	180.000	10.460	2
6754	6696	6695	6697	4	180.000	10.460	2
6751	6691	6690	6692	4	180.000	10.460	2
6760	6704	6703	6705	4	180.000	10.460	2
6761	6705	6704	6706	4	180.000	10.460	2
6768	6728	6727	6729	4	180.000	10.460	2
6756	6699	6697	6700	4	180.000	10.460	2
6769	6729	6728	6730	4	180.000	10.460	2
6771	6731	6730	6732	4	180.000	10.460	2
6772	6732	6727	6731	4	180.000	10.460	2
6784	6743	6703	6742	4	180.000	10.460	2
6783	6742	6706	6743	4	180.000	10.460	2
6770	6730	6729	6731	4	180.000	10.460	2
6759	6702	6690	6701	4	180.000	10.460	2
6763	6708	6707	6709	4	180.000	10.460	2
6766	6713	6712	6714	4	180.000	10.460	2
6765	6712	6711	6713	4	180.000	10.460	2
6767	6714	6713	6715	4	180.000	10.460	2
6762	6707	6706	6708	4	180.000	10.460	2
6725	6719	6716	6720	4	180.000	10.460	2
6800	6794	6793	6795	4	180.000	10.460	2
6801	6793	6792	6794	4	180.000	10.460	2
6842	6806	6805	6807	4	180.000	10.460	2
6799	6797	6796	6798	4	180.0	0.0	2
6832	6827	6826	6828	4	180.000	10.460	2
6843	6803	6786	6804	4	180.000	10.460	2
6802	6790	6789	6791	4	180.000	10.460	2
6837	6811	6810	6812	4	180.000	10.460	2
6841	6809	6808	6810	4	180.000	10.460	2
6826	6815	6814	6816	4	180.000	10.460	2
6819	6816	6815	6817	4	180.000	10.460	2
6823	6820	6819	6821	4	180.000	10.460	2
6864	6810	6809	6811	4	180.000	10.460	2
6857	6800	6794	6799	4	180.000	10.460	2
6853	6795	6794	6796	4	180.000	10.460	2
6858	6801	6793	6802	4	180.000	10.460	2
6852	6792	6791	6793	4	180.000	10.460	2
6854	6796	6795	6797	4	180.000	10.460	2
6851	6791	6790	6792	4	180.000	10.460	2
6860	6804	6803	6805	4	180.000	10.460	2
6861	6805	6804	6806	4	180.000	10.460	2
6868	6828	6827	6829	4	180.000	10.460	2
6856	6799	6797	6800	4	180.000	10.460	2
6869	6829	6828	6830	4	180.000	10.460	2
6871	6831	6830	6832	4	180.000	10.460	2
6872	6832	6827	6831	4	180.000	10.460	2
6884	6843	6803	6842	4	180.000	10.460	2
6883	6842	6806	6843	4	180.000	10.460	2
6870	6830	6829	6831	4	180.000	10.460	2
6859	6802	6790	6801	4	180.000	10.460	2
6863	6808	6807	6809	4	180.000	10.460	2
6866	6813	6812	6814	4	180.000	10.460	2
6865	6812	6811	6813	4	180.000	10.460	2
6867	6814	6813	6815	4	180.000	10.460	2
6862	6807	6806	6808	4	180.000	10.460	2
6825	6819	6816	6820	4	180.000	10.460	2
6900	6894	6893	6895	4	180.000	10.460	2
6901	6893	6892	6894	4	180.000	10.460	2
6942	6906	6905	6907	4	180.000	10.460	2
6899	6897	6896	6898	4	180.0	0.0	2
6932	6927	6926	6928	4	180.000	10.460	2
6943	6903	6886	6904	4	180.000	10.460	2
6902	6890	6889	6891	4	180.000	10.460	2
6937	6911	6910	6912	4	180.000	10.460	2
6941	6909	6908	6910	4	180.000	10.460	2
6926	6915	6914	6916	4	180.000	10.460	2
6919	6916	6915	6917	4	180.000	10.460	2
6923	6920	6919	6921	4	180.000	10.460	2
6964	6910	6909	6911	4	180.000	10.460	2
6957	6900	6894	6899	4	180.000	10.460	2
6953	6895	6894	6896	4	180.000	10.460	2
6958	6901	6893	6902	4	180.000	10.460	2
6952	6892	6891	6893	4	180.000	10.460	2
6954	6896	6895	6897	4	180.000	10.460	2
6951	6891	6890	6892	4	180.000	10.460	2
6960	6904	6903	6905	4	180.000	10.460	2
6961	6905	6904	6906	4	180.000	10.460	2
6968	6928	6927	6929	4	180.000	10.460	2
6956	6899	6897	6900	4	180.000	10.460	2
6969	6929	6928	6930	4	180.000	10.460	2
6971	6931	6930	6932	4	180.000	10.460	2
6972	6932	6927	6931	4	180.000	10.460	2
6984	6943	6903	6942	4	180.000	10.460	2
6983	6942	6906	6943	4	180.000	10.460	2
6970	6930	6929	6931	4	180.000	10.460	2
6959	6902	6890	6901	4	180.000	10.460	2
6963	6908	6907	6909	4	180.000	10.460	2
6966	6913	6912	6914	4	180.000	10.460	2
6965	6912	6911	6913	4	180.000	10.460	2
6967	6914	6913	6915	4	180.000	10.460	2
6962	6907	6906	6908	4	180.000	10.460	2
6925	6919	6916	6920	4	180.000	10.460	2
7000	6994	6993	6995	4	180.000	10.460	2
7001	6993	6992	6994	4	180.000	10.460	2
7042	7006	7005	7007	4	180.000	10.460	2
6999	6997	6996	6998	4	180.0	0.0	2
7032	7027	7026	7028	4	180.000	10.460	2
7043	7003	6986	7004	4	180.000	10.460	2
7002	6990	6989	6991	4	180.000	10.460	2
7037	7011	7010	7012	4	180.000	10.460	2
7041	7009	7008	7010	4	180.000	10.460	2
7026	7015	7014	7016	4	180.000	10.460	2
7019	7016	7015	7017	4	180.000	10.460	2
7023	7020	7019	7021	4	180.000	10.460	2
7064	7010	7009	7011	4	180.000	10.460	2
7057	7000	6994	6999	4	180.000	10.460	2
7053	6995	6994	6996	4	180.000	10.460	2
7058	7001	6993	7002	4	180.000	10.460	2
7052	6992	6991	6993	4	180.000	10.460	2
7054	6996	6995	6997	4	180.000	10.460	2
7051	6991	6990	6992	4	180.000	10.460	2
7060	7004	7003	7005	4	180.000	10.460	2
7061	7005	7004	7006	4	180.000	10.460	2
7068	7028	7027	7029	4	180.000	10.460	2
7056	6999	6997	7000	4	180.000	10.460	2
7069	7029	7028	7030	4	180.000	10.460	2
7071	7031	7030	7032	4	180.000	10.460	2
7072	7032	7027	7031	4	180.000	10.460	2
7084	7043	7003	7042	4	180.000	10.460	2
7083	7042	7006	7043	4	180.000	10.460	2
7070	7030	7029	7031	4	180.000	10.460	2
7059	7002	6990	7001	4	180.000	10.460	2
7063	7008	7007	7009	4	180.000	10.460	2
7066	7013	7012	7014	4	180.000	10.460	2
7065	7012	7011	7013	4	180.000	10.460	2
7067	7014	7013	7015	4	180.000	10.460	2
7062	7007	7006	7008	4	180.000	10.460	2
7025	7019	7016	7020	4	180.000	10.460	2
7100	7094	7093	7095	4	180.000	10.460	2
7101	7093	7092	7094	4	180.000	10.460	2
7142	7106	7105	7107	4	180.000	10.460	2
7099	7097	7096	7098	4	180.0	0.0	2
7132	7127	7126	7128	4	180.000	10.460	2
7143	7103	7086	7104	4	180.000	10.460	2
7102	7090	7089	7091	4	180.000	10.460	2
7137	7111	7110	7112	4	180.000	10.460	2
7141	7109	7108	7110	4	180.000	10.460	2
7126	7115	7114	7116	4	180.000	10.460	2
7119	7116	7115	7117	4	180.000	10.460	2
7123	7120	7119	7121	4	180.000	10.460	2
7164	7110	7109	7111	4	180.000	10.460	2
7157	7100	7094	7099	4	180.000	10.460	2
7153	7095	7094	7096	4	180.000	10.460	2
7158	7101	7093	7102	4	180.000	10.460	2
7152	7092	7091	7093	4	180.000	10.460	2
7154	7096	7095	7097	4	180.000	10.460	2
7151	7091	7090	7092	4	180.000	10.460	2
7160	7104	7103	7105	4	180.000	10.460	2
7161	7105	7104	7106	4	180.000	10.460	2
7168	7128	7127	7129	4	180.000	10.460	2
7156	7099	7097	7100	4	180.000	10.460	2
7169	7129	7128	7130	4	180.000	10.460	2
7171	7131	7130	7132	4	180.000	10.460	2
7172	7132	7127	7131	4	180.000	10.460	2
7184	7143	7103	7142	4	180.000	10.460	2
7183	7142	7106	7143	4	180.000	10.460	2
7170	7130	7129	7131	4	180.000	10.460	2
7159	7102	7090	7101	4	180.000	10.460	2
7163	7108	7107	7109	4	180.000	10.460	2
7166	7113	7112	7114	4	180.000	10.460	2
7165	7112	7111	7113	4	180.000	10.460	2
7167	7114	7113	7115	4	180.000	10.460	2
7162	7107	7106	7108	4	180.000	10.460	2
7125	7119	7116	7120	4	180.000	10.460	2
7200	7194	7193	7195	4	180.000	10.460	2
7201	7193	7192	7194	4	180.000	10.460	2
7242	7206	7205	7207	4	180.000	10.460	2
7199	7197	7196	7198	4	180.0	0.0	2
7232	7227	7226	7228	4	180.000	10.460	2
7243	7203	7186	7204	4	180.000	10.460	2
7202	7190	7189	7191	4	180.000	10.460	2
7237	7211	7210	7212	4	180.000	10.460	2
7241	7209	7208	7210	4	180.000	10.460	2
7226	7215	7214	7216	4	180.000	10.460	2
7219	7216	7215	7217	4	180.000	10.460	2
7223	7220	7219	7221	4	180.000	10.460	2
7264	7210	7209	7211	4	180.000	10.460	2
7257	7200	7194	7199	4	180.000	10.460	2
7253	7195	7194	7196	4	180.000	10.460	2
7258	7201	7193	7202	4	180.000	10.460	2
7252	7192	7191	7193	4	180.000	10.460	2
7254	7196	7195	7197	4	180.000	10.460	2
7251	7191	7190	7192	4	180.000	10.460	2
7260	7204	7203	7205	4	180.000	10.460	2
7261	7205	7204	7206	4	180.000	10.460	2
7268	7228	7227	7229	4	180.000	10.460	2
7256	7199	7197	7200	4	180.000	10.460	2
7269	7229	7228	7230	4	180.000	10.460	2
7271	7231	7230	7232	4	180.000	10.460	2
7272	7232	7227	7231	4	180.000	10.460	2
7284	7243	7203	7242	4	180.000	10.460	2
7283	7242	7206	7243	4	180.000	10.460	2
7270	7230	7229	7231	4	180.000	10.460	2
7259	7202	7190	7201	4	180.000	10.460	2
7263	7208	7207	7209	4	180.000	10.460	2
7266	7213	7212	7214	4	180.000	10.460	2
7265	7212	7211	7213	4	180.000	10.460	2
7267	7214	7213	7215	4	180.000	10.460	2
7262	7207	7206	7208	4	180.000	10.460	2
7225	7219	7216	7220	4	180.000	10.460	2
7300	7294	7293	7295	4	180.000	10.460	2
7301	7293	7292	7294	4	180.000	10.460	2
7342	7306	7305	7307	4	180.000	10.460	2
7299	7297	7296	7298	4	180.0	0.0	2
7332	7327	7326	7328	4	180.000	10.460	2
7343	7303	7286	7304	4	180.000	10.460	2
7302	7290	7289	7291	4	180.000	10.460	2
7337	7311	7310	7312	4	180.000	10.460	2
7341	7309	7308	7310	4	180.000	10.460	2
7326	7315	7314	7316	4	180.000	10.460	2
7319	7316	7315	7317	4	180.000	10.460	2
7323	7320	7319	7321	4	180.000	10.460	2
7364	7310	7309	7311	4	180.000	10.460	2
7357	7300	7294	7299	4	180.000	10.460	2
7353	7295	7294	7296	4	180.000	10.460	2
7358	7301	7293	7302	4	180.000	10.460	2
7352	7292	7291	7293	4	180.000	10.460	2
7354	7296	7295	7297	4	180.000	10.460	2
7351	7291	7290	7292	4	180.000	10.460	2
7360	7304	7303	7305	4	180.000	10.460	2
7361	7305	7304	7306	4	180.000	10.460	2
7368	7328	7327	7329	4	180.000	10.460	2
7356	7299	7297	7300	4	180.000	10.460	2
7369	7329	7328	7330	4	180.000	10.460	2
7371	7331	7330	7332	4	180.000	10.460	2
7372	7332	7327	7331	4	180.000	10.460	2
7384	7343	7303	7342	4	180.000	10.460	2
7383	7342	7306	7343	4	180.000	10.460	2
7370	7330	7329	7331	4	180.000	10.460	2
7359	7302	7290	7301	4	180.000	10.460	2
7363	7308	7307	7309	4	180.000	10.460	2
7366	7313	7312	7314	4	180.000	10.460	2
7365	7312	7311	7313	4	180.000	10.460	2
7367	7314	7313	7315	4	180.000	10.460	2
7362	7307	7306	7308	4	180.000	10.460	2
7325	7319	7316	7320	4	180.000	10.460	2
7400	7394	7393	7395	4	180.000	10.460	2
7401	7393	7392	7394	4	180.000	10.460	2
7442	7406	7405	7407	4	180.000	10.460	2
7399	7397	7396	7398	4	180.0	0.0	2
7432	7427	7426	7428	4	180.000	10.460	2
7443	7403	7386	7404	4	180.000	10.460	2
7402	7390	7389	7391	4	180.000	10.460	2
7437	7411	7410	7412	4	180.000	10.460	2
7441	7409	7408	7410	4	180.000	10.460	2
7426	7415	7414	7416	4	180.000	10.460	2
7419	7416	7415	7417	4	180.000	10.460	2
7423	7420	7419	7421	4	180.000	10.460	2
7464	7410	7409	7411	4	180.000	10.460	2
7457	7400	7394	7399	4	180.000	10.460	2
7453	7395	7394	7396	4	180.000	10.460	2
7458	7401	7393	7402	4	180.000	10.460	2
7452	7392	7391	7393	4	180.000	10.460	2
7454	7396	7395	7397	4	180.000	10.460	2
7451	7391	7390	7392	4	180.000	10.460	2
7460	7404	7403	7405	4	180.000	10.460	2
7461	7405	7404	7406	4	180.000	10.460	2
7468	7428	7427	7429	4	180.000	10.460	2
7456	7399	7397	7400	4	180.000	10.460	2
7469	7429	7428	7430	4	180.000	10.460	2
7471	7431	7430	7432	4	180.000	10.460	2
7472	7432	7427	7431	4	180.000	10.460	2
7484	7443	7403	7442	4	180.000	10.460	2
7483	7442	7406	7443	4	180.000	10.460	2
7470	7430	7429	7431	4	180.000	10.460	2
7459	7402	7390	7401	4	180.000	10.460	2
7463	7408	7407	7409	4	180.000	10.460	2
7466	7413	7412	7414	4	180.000	10.460	2
7465	7412	7411	7413	4	180.000	10.460	2
7467	7414	7413	7415	4	180.000	10.460	2
7462	7407	7406	7408	4	180.000	10.460	2
7425	7419	7416	7420	4	180.000	10.460	2
7500	7494	7493	7495	4	180.000	10.460	2
7501	7493	7492	7494	4	180.000	10.460	2
7542	7506	7505	7507	4	180.000	10.460	2
7499	7497	7496	7498	4	180.0	0.0	2
7532	7527	7526	7528	4	180.000	10.460	2
7543	7503	7486	7504	4	180.000	10.460	2
7502	7490	7489	7491	4	180.000	10.460	2
7537	7511	7510	7512	4	180.000	10.460	2
7541	7509	7508	7510	4	180.000	10.460	2
7526	7515	7514	7516	4	180.000	10.460	2
7519	7516	7515	7517	4	180.000	10.460	2
7523	7520	7519	7521	4	180.000	10.460	2
7564	7510	7509	7511	4	180.000	10.460	2
7557	7500	7494	7499	4	180.000	10.460	2
7553	7495	7494	7496	4	180.000	10.460	2
7558	7501	7493	7502	4	180.000	10.460	2
7552	7492	7491	7493	4	180.000	10.460	2
7554	7496	7495	7497	4	180.000	10.460	2
7551	7491	7490	7492	4	180.000	10.460	2
7560	7504	7503	7505	4	180.000	10.460	2
7561	7505	7504	7506	4	180.000	10.460	2
7568	7528	7527	7529	4	180.000	10.460	2
7556	7499	7497	7500	4	180.000	10.460	2
7569	7529	7528	7530	4	180.000	10.460	2
7571	7531	7530	7532	4	180.000	10.460	2
7572	7532	7527	7531	4	180.000	10.460	2
7584	7543	7503	7542	4	180.000	10.460	2
7583	7542	7506	7543	4	180.000	10.460	2
7570	7530	7529	7531	4	180.000	10.460	2
7559	7502	7490	7501	4	180.000	10.460	2
7563	7508	7507	7509	4	180.000	10.460	2
7566	7513	7512	7514	4	180.000	10.460	2
7565	7512	7511	7513	4	180.000	10.460	2
7567	7514	7513	7515	4	180.000	10.460	2
7562	7507	7506	7508	4	180.000	10.460	2
7525	7519	7516	7520	4	180.000	10.460	2
7600	7594	7593	7595	4	180.000	10.460	2
7601	7593	7592	7594	4	180.000	10.460	2
7642	7606	7605	7607	4	180.000	10.460	2
7599	7597	7596	7598	4	180.0	0.0	2
7632	7627	7626	7628	4	180.000	10.460	2
7643	7603	7586	7604	4	180.000	10.460	2
7602	7590	7589	7591	4	180.000	10.460	2
7637	7611	7610	7612	4	180.000	10.460	2
7641	7609	7608	7610	4	180.000	10.460	2
7626	7615	7614	7616	4	180.000	10.460	2
7619	7616	7615	7617	4	180.000	10.460	2
7623	7620	7619	7621	4	180.000	10.460	2
7664	7610	7609	7611	4	180.000	10.460	2
7657	7600	7594	7599	4	180.000	10.460	2
7653	7595	7594	7596	4	180.000	10.460	2
7658	7601	7593	7602	4	180.000	10.460	2
7652	7592	7591	7593	4	180.000	10.460	2
7654	7596	7595	7597	4	180.000	10.460	2
7651	7591	7590	7592	4	180.000	10.460	2
7660	7604	7603	7605	4	180.000	10.460	2
7661	7605	7604	7606	4	180.000	10.460	2
7668	7628	7627	7629	4	180.000	10.460	2
7656	7599	7597	7600	4	180.000	10.460	2
7669	7629	7628	7630	4	180.000	10.460	2
7671	7631	7630	7632	4	180.000	10.460	2
7672	7632	7627	7631	4	180.000	10.460	2
7684	7643	7603	7642	4	180.000	10.460	2
7683	7642	7606	7643	4	180.000	10.460	2
7670	7630	7629	7631	4	180.000	10.460	2
7659	7602	7590	7601	4	180.000	10.460	2
7663	7608	7607	7609	4	180.000	10.460	2
7666	7613	7612	7614	4	180.000	10.460	2
7665	7612	7611	7613	4	180.000	10.460	2
7667	7614	7613	7615	4	180.000	10.460	2
7662	7607	7606	7608	4	180.000	10.460	2
7625	7619	7616	7620	4	180.000	10.460	2
7700	7694	7693	7695	4	180.000	10.460	2
7701	7693	7692	7694	4	180.000	10.460	2
7742	7706	7705	7707	4	180.000	10.460	2
7699	7697	7696	7698	4	180.0	0.0	2
7732	7727	7726	7728	4	180.000	10.460	2
7743	7703	7686	7704	4	180.000	10.460	2
7702	7690	7689	7691	4	180.000	10.460	2
7737	7711	7710	7712	4	180.000	10.460	2
7741	7709	7708	7710	4	180.000	10.460	2
7726	7715	7714	7716	4	180.000	10.460	2
7719	7716	7715	7717	4	180.000	10.460	2
7723	7720	7719	7721	4	180.000	10.460	2
7764	7710	7709	7711	4	180.000	10.460	2
7757	7700	7694	7699	4	180.000	10.460	2
7753	7695	7694	7696	4	180.000	10.460	2
7758	7701	7693	7702	4	180.000	10.460	2
7752	7692	7691	7693	4	180.000	10.460	2
7754	7696	7695	7697	4	180.000	10.460	2
7751	7691	7690	7692	4	180.000	10.460	2
7760	7704	7703	7705	4	180.000	10.460	2
7761	7705	7704	7706	4	180.000	10.460	2
7768	7728	7727	7729	4	180.000	10.460	2
7756	7699	7697	7700	4	180.000	10.460	2
7769	7729	7728	7730	4	180.000	10.460	2
7771	7731	7730	7732	4	180.000	10.460	2
7772	7732	7727	7731	4	180.000	10.460	2
7784	7743	7703	7742	4	180.000	10.460	2
7783	7742	7706	7743	4	180.000	10.460	2
7770	7730	7729	7731	4	180.000	10.460	2
7759	7702	7690	7701	4	180.000	10.460	2
7763	7708	7707	7709	4	180.000	10.460	2
7766	7713	7712	7714	4	180.000	10.460	2
7765	7712	7711	7713	4	180.000	10.460	2
7767	7714	7713	7715	4	180.000	10.460	2
7762	7707	7706	7708	4	180.000	10.460	2
7725	7719	7716	7720	4	180.000	10.460	2
7800	7794	7793	7795	4	180.000	10.460	2
7801	7793	7792	7794	4	180.000	10.460	2
7842	7806	7805	7807	4	180.000	10.460	2
7799	7797	7796	7798	4	180.0	0.0	2
7832	7827	7826	7828	4	180.000	10.460	2
7843	7803	7786	7804	4	180.000	10.460	2
7802	7790	7789	7791	4	180.000	10.460	2
7837	7811	7810	7812	4	180.000	10.460	2
7841	7809	7808	7810	4	180.000	10.460	2
7826	7815	7814	7816	4	180.000	10.460	2
7819	7816	7815	7817	4	180.000	10.460	2
7823	7820	7819	7821	4	180.000	10.460	2
7864	7810	7809	7811	4	180.000	10.460	2
7857	7800	7794	7799	4	180.000	10.460	2
7853	7795	7794	7796	4	180.000	10.460	2
7858	7801	7793	7802	4	180.000	10.460	2
7852	7792	7791	7793	4	180.000	10.460	2
7854	7796	7795	7797	4	180.000	10.460	2
7851	7791	7790	7792	4	180.000	10.460	2
7860	7804	7803	7805	4	180.000	10.460	2
7861	7805	7804	7806	4	180.000	10.460	2
7868	7828	7827	7829	4	180.000	10.460	2
7856	7799	7797	7800	4	180.000	10.460	2
7869	7829	7828	7830	4	180.000	10.460	2
7871	7831	7830	7832	4	180.000	10.460	2
7872	7832	7827	7831	4	180.000	10.460	2
7884	7843	7803	7842	4	180.000	10.460	2
7883	7842	7806	7843	4	180.000	10.460	2
7870	7830	7829	7831	4	180.000	10.460	2
7859	7802	7790	7801	4	180.000	10.460	2
7863	7808	7807	7809	4	180.000	10.460	2
7866	7813	7812	7814	4	180.000	10.460	2
7865	7812	7811	7813	4	180.000	10.460	2
7867	7814	7813	7815	4	180.000	10.460	2
7862	7807	7806	7808	4	180.000	10.460	2
7825	7819	7816	7820	4	180.000	10.460	2
7900	7894	7893	7895	4	180.000	10.460	2
7901	7893	7892	7894	4	180.000	10.460	2
7942	7906	7905	7907	4	180.000	10.460	2
7899	7897	7896	7898	4	180.0	0.0	2
7932	7927	7926	7928	4	180.000	10.460	2
7943	7903	7886	7904	4	180.000	10.460	2
7902	7890	7889	7891	4	180.000	10.460	2
7937	7911	7910	7912	4	180.000	10.460	2
7941	7909	7908	7910	4	180.000	10.460	2
7926	7915	7914	7916	4	180.000	10.460	2
7919	7916	7915	7917	4	180.000	10.460	2
7923	7920	7919	7921	4	180.000	10.460	2
7964	7910	7909	7911	4	180.000	10.460	2
7957	7900	7894	7899	4	180.000	10.460	2
7953	7895	7894	7896	4	180.000	10.460	2
7958	7901	7893	7902	4	180.000	10.460	2
7952	7892	7891	7893	4	180.000	10.460	2
7954	7896	7895	7897	4	180.000	10.460	2
7951	7891	7890	7892	4	180.000	10.460	2
7960	7904	7903	7905	4	180.000	10.460	2
7961	7905	7904	7906	4	180.000	10.460	2
7968	7928	7927	7929	4	180.000	10.460	2
7956	7899	7897	7900	4	180.000	10.460	2
7969	7929	7928	7930	4	180.000	10.460	2
7971	7931	7930	7932	4	180.000	10.460	2
7972	7932	7927	7931	4	180.000	10.460	2
7984	7943	7903	7942	4	180.000	10.460	2
7983	7942	7906	7943	4	180.000	10.460	2
7970	7930	7929	7931	4	180.000	10.460	2
7959	7902	7890	7901	4	180.000	10.460	2
7963	7908	7907	7909	4	180.000	10.460	2
7966	7913	7912	7914	4	180.000	10.460	2
7965	7912	7911	7913	4	180.000	10.460	2
7967	7914	7913	7915	4	180.000	10.460	2
7962	7907	7906	7908	4	180.000	10.460	2
7925	7919	7916	7920	4	180.000	10.460	2
8000	7994	7993	7995	4	180.000	10.460	2
8001	7993	7992	7994	4	180.000	10.460	2
8042	8006	8005	8007	4	180.000	10.460	2
7999	7997	7996	7998	4	180.0	0.0	2
8032	8027	8026	8028	4	180.000	10.460	2
8043	8003	7986	8004	4	180.000	10.460	2
8002	7990	7989	7991	4	180.000	10.460	2
8037	8011	8010	8012	4	180.000	10.460	2
8041	8009	8008	8010	4	180.000	10.460	2
8026	8015	8014	8016	4	180.000	10.460	2
8019	8016	8015	8017	4	180.000	10.460	2
8023	8020	8019	8021	4	180.000	10.460	2
8064	8010	8009	8011	4	180.000	10.460	2
8057	8000	7994	7999	4	180.000	10.460	2
8053	7995	7994	7996	4	180.000	10.460	2
8058	8001	7993	8002	4	180.000	10.460	2
8052	7992	7991	7993	4	180.000	10.460	2
8054	7996	7995	7997	4	180.000	10.460	2
8051	7991	7990	7992	4	180.000	10.460	2
8060	8004	8003	8005	4	180.000	10.460	2
8061	8005	8004	8006	4	180.000	10.460	2
8068	8028	8027	8029	4	180.000	10.460	2
8056	7999	7997	8000	4	180.000	10.460	2
8069	8029	8028	8030	4	180.000	10.460	2
8071	8031	8030	8032	4	180.000	10.460	2
8072	8032	8027	8031	4	180.000	10.460	2
8084	8043	8003	8042	4	180.000	10.460	2
8083	8042	8006	8043	4	180.000	10.460	2
8070	8030	8029	8031	4	180.000	10.460	2
8059	8002	7990	8001	4	180.000	10.460	2
8063	8008	8007	8009	4	180.000	10.460	2
8066	8013	8012	8014	4	180.000	10.460	2
8065	8012	8011	8013	4	180.000	10.460	2
8067	8014	8013	8015	4	180.000	10.460	2
8062	8007	8006	8008	4	180.000	10.460	2
8025	8019	8016	8020	4	180.000	10.460	2
8100	8094	8093	8095	4	180.000	10.460	2
8101	8093	8092	8094	4	180.000	10.460	2
8142	8106	8105	8107	4	180.000	10.460	2
8099	8097	8096	8098	4	180.0	0.0	2
8132	8127	8126	8128	4	180.000	10.460	2
8143	8103	8086	8104	4	180.000	10.460	2
8102	8090	8089	8091	4	180.000	10.460	2
8137	8111	8110	8112	4	180.000	10.460	2
8141	8109	8108	8110	4	180.000	10.460	2
8126	8115	8114	8116	4	180.000	10.460	2
8119	8116	8115	8117	4	180.000	10.460	2
8123	8120	8119	8121	4	180.000	10.460	2
8164	8110	8109	8111	4	180.000	10.460	2
8157	8100	8094	8099	4	180.000	10.460	2
8153	8095	8094	8096	4	180.000	10.460	2
8158	8101	8093	8102	4	180.000	10.460	2
8152	8092	8091	8093	4	180.000	10.460	2
8154	8096	8095	8097	4	180.000	10.460	2
8151	8091	8090	8092	4	180.000	10.460	2
8160	8104	8103	8105	4	180.000	10.460	2
8161	8105	8104	8106	4	180.000	10.460	2
8168	8128	8127	8129	4	180.000	10.460	2
8156	8099	8097	8100	4	180.000	10.460	2
8169	8129	8128	8130	4	180.000	10.460	2
8171	8131	8130	8132	4	180.000	10.460	2
8172	8132	8127	8131	4	180.000	10.460	2
8184	8143	8103	8142	4	180.000	10.460	2
8183	8142	8106	8143	4	180.000	10.460	2
8170	8130	8129	8131	4	180.000	10.460	2
8159	8102	8090	8101	4	180.000	10.460	2
8163	8108	8107	8109	4	180.000	10.460	2
8166	8113	8112	8114	4	180.000	10.460	2
8165	8112	8111	8113	4	180.000	10.460	2
8167	8114	8113	8115	4	180.000	10.460	2
8162	8107	8106	8108	4	180.000	10.460	2
8125	8119	8116	8120	4	180.000	10.460	2
8200	8194	8193	8195	4	180.000	10.460	2
8201	8193	8192	8194	4	180.000	10.460	2
8242	8206	8205	8207	4	180.000	10.460	2
8199	8197	8196	8198	4	180.0	0.0	2
8232	8227	8226	8228	4	180.000	10.460	2
8243	8203	8186	8204	4	180.000	10.460	2
8202	8190	8189	8191	4	180.000	10.460	2
8237	8211	8210	8212	4	180.000	10.460	2
8241	8209	8208	8210	4	180.000	10.460	2
8226	8215	8214	8216	4	180.000	10.460	2
8219	8216	8215	8217	4	180.000	10.460	2
8223	8220	8219	8221	4	180.000	10.460	2
8264	8210	8209	8211	4	180.000	10.460	2
8257	8200	8194	8199	4	180.000	10.460	2
8253	8195	8194	8196	4	180.000	10.460	2
8258	8201	8193	8202	4	180.000	10.460	2
8252	8192	8191	8193	4	180.000	10.460	2
8254	8196	8195	8197	4	180.000	10.460	2
8251	8191	8190	8192	4	180.000	10.460	2
8260	8204	8203	8205	4	180.000	10.460	2
8261	8205	8204	8206	4	180.000	10.460	2
8268	8228	8227	8229	4	180.000	10.460	2
8256	8199	8197	8200	4	180.000	10.460	2
8269	8229	8228	8230	4	180.000	10.460	2
8271	8231	8230	8232	4	180.000	10.460	2
8272	8232	8227	8231	4	180.000	10.460	2
8284	8243	8203	8242	4	180.000	10.460	2
8283	8242	8206	8243	4	180.000	10.460	2
8270	8230	8229	8231	4	180.000	10.460	2
8259	8202	8190	8201	4	180.000	10.460	2
8263	8208	8207	8209	4	180.000	10.460	2
8266	8213	8212	8214	4	180.000	10.460	2
8265	8212	8211	8213	4	180.000	10.460	2
8267	8214	8213	8215	4	180.000	10.460	2
8262	8207	8206	8208	4	180.000	10.460	2
8225	8219	8216	8220	4	180.000	10.460	2
8300	8294	8293	8295	4	180.000	10.460	2
8301	8293	8292	8294	4	180.000	10.460	2
8342	8306	8305	8307	4	180.000	10.460	2
8299	8297	8296	8298	4	180.0	0.0	2
8332	8327	8326	8328	4	180.000	10.460	2
8343	8303	8286	8304	4	180.000	10.460	2
8302	8290	8289	8291	4	180.000	10.460	2
8337	8311	8310	8312	4	180.000	10.460	2
8341	8309	8308	8310	4	180.000	10.460	2
8326	8315	8314	8316	4	180.000	10.460	2
8319	8316	8315	8317	4	180.000	10.460	2
8323	8320	8319	8321	4	180.000	10.460	2
8364	8310	8309	8311	4	180.000	10.460	2
8357	8300	8294	8299	4	180.000	10.460	2
8353	8295	8294	8296	4	180.000	10.460	2
8358	8301	8293	8302	4	180.000	10.460	2
8352	8292	8291	8293	4	180.000	10.460	2
8354	8296	8295	8297	4	180.000	10.460	2
8351	8291	8290	8292	4	180.000	10.460	2
8360	8304	8303	8305	4	180.000	10.460	2
8361	8305	8304	8306	4	180.000	10.460	2
8368	8328	8327	8329	4	180.000	10.460	2
8356	8299	8297	8300	4	180.000	10.460	2
8369	8329	8328	8330	4	180.000	10.460	2
8371	8331	8330	8332	4	180.000	10.460	2
8372	8332	8327	8331	4	180.000	10.460	2
8384	8343	8303	8342	4	180.000	10.460	2
8383	8342	8306	8343	4	180.000	10.460	2
8370	8330	8329	8331	4	180.000	10.460	2
8359	8302	8290	8301	4	180.000	10.460	2
8363	8308	8307	8309	4	180.000	10.460	2
8366	8313	8312	8314	4	180.000	10.460	2
8365	8312	8311	8313	4	180.000	10.460	2
8367	8314	8313	8315	4	180.000	10.460	2
8362	8307	8306	8308	4	180.000	10.460	2
8325	8319	8316	8320	4	180.000	10.460	2
; PROPER DIHEDRAL ANGLES
;  ai    aj    ak    al funct            c0            c1            c2            c3            c4            c5

1994	1993	1992	1991	3	30.334	0.000	-30.334	-0.000	-0.000	0.000
1993	2001	2002	1990	3	30.334	0.000	-30.334	-0.000	-0.000	0.000
1993	1992	1991	1990	3	30.334	0.000	-30.334	-0.000	-0.000	0.000
2014	2013	2012	2011	3	21.738	2.408	-16.966	-7.180	-0.000	0.000
2010	2009	2008	2007	3	21.738	2.408	-16.966	-7.180	-0.000	0.000
2011	2010	2009	2008	3	21.738	2.408	-16.966	-7.180	-0.000	0.000
2012	2011	2010	2009	3	21.738	2.408	-16.966	-7.180	-0.000	0.000
2013	2012	2011	2010	3	21.738	2.408	-16.966	-7.180	-0.000	0.000
2009	2008	2007	2006	3	58.576	0.000	-58.576	-0.000	-0.000	0.000
2008	2007	2006	2005	3	16.027	-4.391	-14.029	2.393	-0.000	0.000
2007	2006	2005	2004	3	30.334	0.000	-30.334	-0.000	-0.000	0.000
2016	2015	2014	2013	3	58.576	0.000	-58.576	-0.000	-0.000	0.000
2001	1993	1994	2000	3	9.079	0.000	-9.079	-0.000	-0.000	0.000
2000	1994	1993	1992	3	9.079	0.000	-9.079	-0.000	-0.000	0.000
2001	1993	1994	1995	3	9.079	0.000	-9.079	-0.000	-0.000	0.000
1995	1994	1993	1992	3	9.079	0.000	-9.079	-0.000	-0.000	0.000
2000	1994	1995	1996	3	30.334	0.000	-30.334	-0.000	-0.000	0.000
2001	1993	1992	1991	3	30.334	0.000	-30.334	-0.000	-0.000	0.000
1999	2000	1994	1993	3	30.334	0.000	-30.334	-0.000	-0.000	0.000
2002	2001	1993	1994	3	30.334	0.000	-30.334	-0.000	-0.000	0.000
1996	1995	1994	1993	3	30.334	0.000	-30.334	-0.000	-0.000	0.000
1999	2000	1994	1995	3	30.334	0.000	-30.334	-0.000	-0.000	0.000
2002	2001	1993	1992	3	30.334	0.000	-30.334	-0.000	-0.000	0.000
2042	2006	2007	2008	3	16.027	-4.391	-14.029	2.393	-0.000	0.000
1997	1999	2000	1994	3	30.334	0.000	-30.334	-0.000	-0.000	0.000
1997	1996	1995	1994	3	30.334	0.000	-30.334	-0.000	-0.000	0.000
2043	2042	2006	2007	3	30.334	0.000	-30.334	-0.000	-0.000	0.000
2032	2027	2028	2029	3	30.334	0.000	-30.334	-0.000	-0.000	0.000
2043	2042	2006	2005	3	30.334	0.000	-30.334	-0.000	-0.000	0.000
2002	1990	1991	1992	3	30.334	0.000	-30.334	-0.000	-0.000	0.000
2042	2043	2003	2004	3	30.334	0.000	-30.334	-0.000	-0.000	0.000
2032	2031	2030	2029	3	30.334	0.000	-30.334	-0.000	-0.000	0.000
2031	2030	2029	2028	3	30.334	0.000	-30.334	-0.000	-0.000	0.000
2030	2029	2028	2027	3	30.334	0.000	-30.334	-0.000	-0.000	0.000
2006	2005	2004	2003	3	30.334	0.000	-30.334	-0.000	-0.000	0.000
2006	2042	2043	2003	3	30.334	0.000	-30.334	-0.000	-0.000	0.000
2043	2003	2004	2005	3	30.334	0.000	-30.334	-0.000	-0.000	0.000
2042	2006	2005	2004	3	30.334	0.000	-30.334	-0.000	-0.000	0.000
2031	2032	2027	2028	3	30.334	0.000	-30.334	-0.000	-0.000	0.000
2000	1999	1997	1996	3	30.334	0.000	-30.334	-0.000	-0.000	0.000
2001	2002	1990	1991	3	30.334	0.000	-30.334	-0.000	-0.000	0.000
2030	2031	2032	2027	3	30.334	0.000	-30.334	-0.000	-0.000	0.000
1999	1997	1996	1995	3	30.334	0.000	-30.334	-0.000	-0.000	0.000
2031	2032	2027	2026	3	30.334	0.000	-30.334	-0.000	-0.000	0.000
2029	2028	2027	2026	3	30.334	0.000	-30.334	-0.000	-0.000	0.000
2042	2043	2003	1986	3	30.334	0.000	-30.334	-0.000	-0.000	0.000
2005	2004	2003	1986	3	30.334	0.000	-30.334	-0.000	-0.000	0.000
2000	1999	1997	1998	3	0.0	0.0	0.0	-0.0	-0.0	0.0
1992	1991	1990	1989	3	30.334	0.000	-30.334	-0.000	-0.000	0.000
2001	2002	1990	1989	3	30.334	0.000	-30.334	-0.000	-0.000	0.000
2032	2027	2026	2015	3	0.000	0.000	0.000	-0.000	-0.000	0.000
2028	2027	2026	2015	3	0.000	0.000	0.000	-0.000	-0.000	0.000
2032	2027	2026	2025	3	0.000	0.000	0.000	-0.000	-0.000	0.000
2028	2027	2026	2025	3	0.000	0.000	0.000	-0.000	-0.000	0.000
2043	2003	1986	1987	3	5.184	35.932	-14.355	-26.761	-0.000	0.000
2004	2003	1986	1987	3	5.184	35.932	-14.355	-26.761	-0.000	0.000
2004	2003	1986	1985	3	5.184	35.932	-14.355	-26.761	-0.000	0.000
2043	2003	1986	1985	3	5.184	35.932	-14.355	-26.761	-0.000	0.000
1991	1990	1989	1988	3	12.552	0.000	-12.552	-0.000	-0.000	0.000
2002	1990	1989	1988	3	12.552	0.000	-12.552	-0.000	-0.000	0.000
2027	2026	2015	2014	3	6.322	-2.485	0.707	-4.544	-0.000	0.000
2027	2026	2015	2016	3	0.527	-6.397	-1.695	7.565	-0.000	0.000
2027	2026	2025	2019	3	1.715	2.845	1.046	-5.607	-0.000	0.000
2003	1986	1987	1988	3	1.789	3.492	0.536	-5.816	-0.000	0.000
1990	1989	1988	1987	3	1.715	2.845	1.046	-5.607	-0.000	0.000
2033	2026	2027	2028	3	0.000	0.000	0.000	-0.000	-0.000	0.000
2033	2026	2027	2032	3	0.000	0.000	0.000	-0.000	-0.000	0.000
2033	2026	2015	2014	3	6.322	-2.485	0.707	-4.544	-0.000	0.000
2033	2026	2015	2016	3	0.527	-6.397	-1.695	7.565	-0.000	0.000
2033	2026	2025	2019	3	1.715	2.845	1.046	-5.607	-0.000	0.000
2015	2014	2013	2012	3	21.738	2.408	-16.966	-7.180	-0.000	0.000
2020	2019	2016	2015	3	21.738	2.408	-16.966	-7.180	-0.000	0.000
2020	2019	2016	2017	3	-0.778	-2.335	0.000	3.113	-0.000	0.000
2041	2009	2008	2007	3	58.576	0.000	-58.576	-0.000	-0.000	0.000
2037	2011	2010	2009	3	58.576	0.000	-58.576	-0.000	-0.000	0.000
2041	2009	2010	2011	3	58.576	0.000	-58.576	-0.000	-0.000	0.000
2037	2011	2012	2013	3	58.576	0.000	-58.576	-0.000	-0.000	0.000
2026	2015	2014	2013	3	-0.778	-2.335	0.000	3.113	-0.000	0.000
2026	2015	2016	2019	3	58.576	0.000	-58.576	-0.000	-0.000	0.000
2026	2015	2016	2017	3	58.576	0.000	-58.576	-0.000	-0.000	0.000
2038	2041	2009	2008	3	0.527	-6.397	-1.695	7.565	-0.000	0.000
2038	2037	2011	2012	3	0.527	-6.397	-1.695	7.565	-0.000	0.000
2038	2037	2011	2010	3	0.527	-6.397	-1.695	7.565	-0.000	0.000
2038	2041	2009	2010	3	0.527	-6.397	-1.695	7.565	-0.000	0.000
2041	2038	2037	2011	3	2.301	-1.464	0.837	-1.674	-0.000	0.000
2040	2038	2041	2009	3	2.301	-1.464	0.837	-1.674	-0.000	0.000
2037	2038	2041	2009	3	2.301	-1.464	0.837	-1.674	-0.000	0.000
2039	2038	2041	2009	3	2.301	-1.464	0.837	-1.674	-0.000	0.000
2040	2038	2037	2011	3	2.301	-1.464	0.837	-1.674	-0.000	0.000
2039	2038	2037	2011	3	2.301	-1.464	0.837	-1.674	-0.000	0.000
1988	1987	1986	1985	3	1.789	3.492	0.536	-5.816	-0.000	0.000
2026	2025	2019	2016	3	30.334	0.000	-30.334	-0.000	-0.000	0.000
2026	2025	2019	2020	3	30.334	0.000	-30.334	-0.000	-0.000	0.000
2019	2016	2015	2014	3	58.576	0.000	-58.576	-0.000	-0.000	0.000
2019	2025	2026	2015	3	1.715	2.845	1.046	-5.607	-0.000	0.000
2017	2016	2015	2014	3	58.576	0.000	-58.576	-0.000	-0.000	0.000
2021	2020	2019	2016	3	58.576	0.000	-58.576	-0.000	-0.000	0.000
2023	2020	2019	2016	3	58.576	0.000	-58.576	-0.000	-0.000	0.000
2034	2033	2026	2027	3	0.000	0.000	0.000	-0.000	-0.000	0.000
2035	2033	2026	2027	3	0.000	0.000	0.000	-0.000	-0.000	0.000
2036	2033	2026	2027	3	0.000	0.000	0.000	-0.000	-0.000	0.000
2035	2033	2026	2015	3	0.000	0.000	0.000	-0.000	-0.000	0.000
2034	2033	2026	2015	3	0.000	0.000	0.000	-0.000	-0.000	0.000
2036	2033	2026	2015	3	0.000	0.000	0.000	-0.000	-0.000	0.000
2035	2033	2026	2025	3	1.130	3.389	0.000	-4.519	-0.000	0.000
2036	2033	2026	2025	3	1.130	3.389	0.000	-4.519	-0.000	0.000
2034	2033	2026	2025	3	1.130	3.389	0.000	-4.519	-0.000	0.000
2064	2010	2009	2008	3	58.576	0.000	-58.576	-0.000	-0.000	0.000
2064	2010	2011	2012	3	58.576	0.000	-58.576	-0.000	-0.000	0.000
2064	2010	2011	2037	3	58.576	0.000	-58.576	-0.000	-0.000	0.000
2064	2010	2009	2041	3	58.576	0.000	-58.576	-0.000	-0.000	0.000
2053	1995	1994	1993	3	30.334	0.000	-30.334	-0.000	-0.000	0.000
2052	1992	1993	1994	3	30.334	0.000	-30.334	-0.000	-0.000	0.000
2058	2001	1993	1994	3	30.334	0.000	-30.334	-0.000	-0.000	0.000
2057	2000	1994	1993	3	30.334	0.000	-30.334	-0.000	-0.000	0.000
2057	2000	1994	1995	3	30.334	0.000	-30.334	-0.000	-0.000	0.000
2053	1995	1994	2000	3	30.334	0.000	-30.334	-0.000	-0.000	0.000
2052	1992	1993	2001	3	30.334	0.000	-30.334	-0.000	-0.000	0.000
2058	2001	1993	1992	3	30.334	0.000	-30.334	-0.000	-0.000	0.000
2051	1991	1992	1993	3	30.334	0.000	-30.334	-0.000	-0.000	0.000
2059	2002	2001	1993	3	30.334	0.000	-30.334	-0.000	-0.000	0.000
2054	1996	1995	1994	3	30.334	0.000	-30.334	-0.000	-0.000	0.000
2056	1999	2000	1994	3	30.334	0.000	-30.334	-0.000	-0.000	0.000
2061	2005	2006	2007	3	30.334	0.000	-30.334	-0.000	-0.000	0.000
2083	2042	2006	2007	3	30.334	0.000	-30.334	-0.000	-0.000	0.000
2068	2028	2029	2030	3	30.334	0.000	-30.334	-0.000	-0.000	0.000
2056	1999	1997	1996	3	30.334	0.000	-30.334	-0.000	-0.000	0.000
2071	2031	2030	2029	3	30.334	0.000	-30.334	-0.000	-0.000	0.000
2083	2042	2043	2003	3	30.334	0.000	-30.334	-0.000	-0.000	0.000
2069	2029	2028	2027	3	30.334	0.000	-30.334	-0.000	-0.000	0.000
2084	2043	2042	2006	3	30.334	0.000	-30.334	-0.000	-0.000	0.000
2070	2030	2029	2028	3	30.334	0.000	-30.334	-0.000	-0.000	0.000
2059	2002	1990	1991	3	30.334	0.000	-30.334	-0.000	-0.000	0.000
2058	2001	2002	1990	3	30.334	0.000	-30.334	-0.000	-0.000	0.000
2083	2042	2006	2005	3	30.334	0.000	-30.334	-0.000	-0.000	0.000
2084	2043	2003	2004	3	30.334	0.000	-30.334	-0.000	-0.000	0.000
2071	2031	2032	2027	3	30.334	0.000	-30.334	-0.000	-0.000	0.000
2068	2028	2027	2032	3	30.334	0.000	-30.334	-0.000	-0.000	0.000
2053	1995	1996	1997	3	30.334	0.000	-30.334	-0.000	-0.000	0.000
2054	1996	1997	1999	3	30.334	0.000	-30.334	-0.000	-0.000	0.000
2051	1991	1990	2002	3	30.334	0.000	-30.334	-0.000	-0.000	0.000
2060	2004	2003	2043	3	30.334	0.000	-30.334	-0.000	-0.000	0.000
2060	2004	2005	2006	3	30.334	0.000	-30.334	-0.000	-0.000	0.000
2057	2000	1999	1997	3	30.334	0.000	-30.334	-0.000	-0.000	0.000
2061	2005	2006	2042	3	30.334	0.000	-30.334	-0.000	-0.000	0.000
2070	2030	2031	2032	3	30.334	0.000	-30.334	-0.000	-0.000	0.000
2072	2032	2031	2030	3	30.334	0.000	-30.334	-0.000	-0.000	0.000
2069	2029	2030	2031	3	30.334	0.000	-30.334	-0.000	-0.000	0.000
2072	2032	2027	2028	3	30.334	0.000	-30.334	-0.000	-0.000	0.000
2052	1992	1991	1990	3	30.334	0.000	-30.334	-0.000	-0.000	0.000
2061	2005	2004	2003	3	30.334	0.000	-30.334	-0.000	-0.000	0.000
2072	2032	2027	2026	3	30.334	0.000	-30.334	-0.000	-0.000	0.000
2068	2028	2027	2026	3	30.334	0.000	-30.334	-0.000	-0.000	0.000
2061	2005	2004	2060	3	30.334	0.000	-30.334	-0.000	-0.000	0.000
2084	2043	2042	2083	3	30.334	0.000	-30.334	-0.000	-0.000	0.000
2070	2030	2029	2069	3	30.334	0.000	-30.334	-0.000	-0.000	0.000
2054	1996	1995	2053	3	30.334	0.000	-30.334	-0.000	-0.000	0.000
2059	2002	2001	2058	3	30.334	0.000	-30.334	-0.000	-0.000	0.000
2057	2000	1999	2056	3	30.334	0.000	-30.334	-0.000	-0.000	0.000
2069	2029	2028	2068	3	30.334	0.000	-30.334	-0.000	-0.000	0.000
2052	1992	1991	2051	3	30.334	0.000	-30.334	-0.000	-0.000	0.000
2071	2031	2030	2070	3	30.334	0.000	-30.334	-0.000	-0.000	0.000
2072	2032	2031	2071	3	30.334	0.000	-30.334	-0.000	-0.000	0.000
2084	2043	2003	1986	3	30.334	0.000	-30.334	-0.000	-0.000	0.000
2060	2004	2003	1986	3	30.334	0.000	-30.334	-0.000	-0.000	0.000
2054	1996	1997	1998	3	0.0	0.0	0.0	-0.0	-0.0	0.0
2056	1999	1997	1998	3	0.0	0.0	0.0	-0.0	-0.0	0.0
2051	1991	1990	1989	3	30.334	0.000	-30.334	-0.000	-0.000	0.000
2059	2002	1990	1989	3	30.334	0.000	-30.334	-0.000	-0.000	0.000
2065	2012	2011	2010	3	58.576	0.000	-58.576	-0.000	-0.000	0.000
2065	2012	2013	2014	3	58.576	0.000	-58.576	-0.000	-0.000	0.000
2067	2014	2013	2012	3	58.576	0.000	-58.576	-0.000	-0.000	0.000
2066	2013	2012	2011	3	58.576	0.000	-58.576	-0.000	-0.000	0.000
2063	2008	2009	2010	3	58.576	0.000	-58.576	-0.000	-0.000	0.000
2062	2007	2008	2009	3	58.576	0.000	-58.576	-0.000	-0.000	0.000
2063	2008	2007	2006	3	58.576	0.000	-58.576	-0.000	-0.000	0.000
2066	2013	2014	2015	3	58.576	0.000	-58.576	-0.000	-0.000	0.000
2065	2012	2011	2037	3	58.576	0.000	-58.576	-0.000	-0.000	0.000
2063	2008	2009	2041	3	58.576	0.000	-58.576	-0.000	-0.000	0.000
2063	2008	2007	2062	3	58.576	0.000	-58.576	-0.000	-0.000	0.000
2066	2013	2012	2065	3	58.576	0.000	-58.576	-0.000	-0.000	0.000
2067	2014	2013	2066	3	58.576	0.000	-58.576	-0.000	-0.000	0.000
2062	2007	2006	2042	3	-0.778	-2.335	0.000	3.113	-0.000	0.000
2062	2007	2006	2005	3	-0.778	-2.335	0.000	3.113	-0.000	0.000
2067	2014	2015	2016	3	58.576	0.000	-58.576	-0.000	-0.000	0.000
2067	2014	2015	2026	3	58.576	0.000	-58.576	-0.000	-0.000	0.000
2081	2041	2009	2008	3	-0.778	-2.335	0.000	3.113	-0.000	0.000
2081	2041	2009	2010	3	-0.778	-2.335	0.000	3.113	-0.000	0.000
2082	2041	2009	2008	3	-0.778	-2.335	0.000	3.113	-0.000	0.000
2074	2037	2011	2012	3	-0.778	-2.335	0.000	3.113	-0.000	0.000
2082	2041	2009	2010	3	-0.778	-2.335	0.000	3.113	-0.000	0.000
2073	2037	2011	2010	3	-0.778	-2.335	0.000	3.113	-0.000	0.000
2074	2037	2011	2010	3	-0.778	-2.335	0.000	3.113	-0.000	0.000
2073	2037	2011	2012	3	-0.778	-2.335	0.000	3.113	-0.000	0.000
2076	2039	2038	2041	3	0.628	1.883	0.000	-2.510	-0.000	0.000
2075	2039	2038	2040	3	0.628	1.883	0.000	-2.510	-0.000	0.000
2075	2039	2038	2037	3	0.628	1.883	0.000	-2.510	-0.000	0.000
2077	2039	2038	2040	3	0.628	1.883	0.000	-2.510	-0.000	0.000
2079	2040	2038	2037	3	0.628	1.883	0.000	-2.510	-0.000	0.000
2078	2040	2038	2037	3	0.628	1.883	0.000	-2.510	-0.000	0.000
2077	2039	2038	2037	3	0.628	1.883	0.000	-2.510	-0.000	0.000
2079	2040	2038	2039	3	0.628	1.883	0.000	-2.510	-0.000	0.000
2076	2039	2038	2037	3	0.628	1.883	0.000	-2.510	-0.000	0.000
2081	2041	2038	2037	3	0.628	1.883	0.000	-2.510	-0.000	0.000
2081	2041	2038	2039	3	0.628	1.883	0.000	-2.510	-0.000	0.000
2074	2037	2038	2039	3	0.628	1.883	0.000	-2.510	-0.000	0.000
2077	2039	2038	2041	3	0.628	1.883	0.000	-2.510	-0.000	0.000
2074	2037	2038	2040	3	0.628	1.883	0.000	-2.510	-0.000	0.000
2082	2041	2038	2039	3	0.628	1.883	0.000	-2.510	-0.000	0.000
2078	2040	2038	2041	3	0.628	1.883	0.000	-2.510	-0.000	0.000
2079	2040	2038	2041	3	0.628	1.883	0.000	-2.510	-0.000	0.000
2080	2040	2038	2037	3	0.628	1.883	0.000	-2.510	-0.000	0.000
2073	2037	2038	2040	3	0.628	1.883	0.000	-2.510	-0.000	0.000
2073	2037	2038	2039	3	0.628	1.883	0.000	-2.510	-0.000	0.000
2078	2040	2038	2039	3	0.628	1.883	0.000	-2.510	-0.000	0.000
2074	2037	2038	2041	3	0.628	1.883	0.000	-2.510	-0.000	0.000
2082	2041	2038	2040	3	0.628	1.883	0.000	-2.510	-0.000	0.000
2076	2039	2038	2040	3	0.628	1.883	0.000	-2.510	-0.000	0.000
2075	2039	2038	2041	3	0.628	1.883	0.000	-2.510	-0.000	0.000
2082	2041	2038	2037	3	0.628	1.883	0.000	-2.510	-0.000	0.000
2073	2037	2038	2041	3	0.628	1.883	0.000	-2.510	-0.000	0.000
2080	2040	2038	2039	3	0.628	1.883	0.000	-2.510	-0.000	0.000
2081	2041	2038	2040	3	0.628	1.883	0.000	-2.510	-0.000	0.000
2080	2040	2038	2041	3	0.628	1.883	0.000	-2.510	-0.000	0.000
2049	1988	1987	2048	3	0.628	1.883	0.000	-2.510	-0.000	0.000
2050	1988	1987	2047	3	0.628	1.883	0.000	-2.510	-0.000	0.000
2049	1988	1987	2047	3	0.628	1.883	0.000	-2.510	-0.000	0.000
2050	1988	1987	2048	3	0.628	1.883	0.000	-2.510	-0.000	0.000
2050	1988	1987	1986	3	-4.096	5.088	2.966	-3.958	-0.000	0.000
2049	1988	1987	1986	3	-4.096	5.088	2.966	-3.958	-0.000	0.000
2048	1987	1988	1989	3	0.979	2.937	0.000	-3.916	-0.000	0.000
2047	1987	1988	1989	3	0.979	2.937	0.000	-3.916	-0.000	0.000
2048	1987	1986	2003	3	1.172	3.515	0.000	-4.686	-0.000	0.000
2044	1985	1986	2003	3	1.172	3.515	0.000	-4.686	-0.000	0.000
2047	1987	1986	2003	3	1.172	3.515	0.000	-4.686	-0.000	0.000
2045	1985	1986	2003	3	1.172	3.515	0.000	-4.686	-0.000	0.000
2046	1985	1986	2003	3	1.172	3.515	0.000	-4.686	-0.000	0.000
2047	1987	1986	1985	3	1.172	3.515	0.000	-4.686	-0.000	0.000
2045	1985	1986	1987	3	1.172	3.515	0.000	-4.686	-0.000	0.000
2048	1987	1986	1985	3	1.172	3.515	0.000	-4.686	-0.000	0.000
2046	1985	1986	1987	3	1.172	3.515	0.000	-4.686	-0.000	0.000
2044	1985	1986	1987	3	1.172	3.515	0.000	-4.686	-0.000	0.000
2049	1988	1989	1990	3	1.590	4.770	0.000	-6.360	-0.000	0.000
2050	1988	1989	1990	3	1.590	4.770	0.000	-6.360	-0.000	0.000
2055	1998	1997	1999	3	0.0	0.0	0.0	-0.0	-0.0	0.0
2055	1998	1997	1996	3	0.0	0.0	0.0	-0.0	-0.0	0.0
1998	1997	1996	1995	3	0.0	0.0	0.0	-0.0	-0.0	0.0
2025	2026	2015	2014	3	2.874	0.582	2.092	-5.548	-0.000	0.000
2025	2026	2015	2016	3	1.046	-1.046	0.000	-0.000	-0.000	0.000
1989	1988	1987	1986	3	16.736	-16.736	0.000	-0.000	-0.000	0.000
2025	2019	2016	2015	3	1.046	-1.046	0.000	-0.000	-0.000	0.000
2025	2019	2016	2017	3	9.079	0.000	-9.079	-0.000	-0.000	0.000
2094	2093	2092	2091	3	30.334	0.000	-30.334	-0.000	-0.000	0.000
2093	2101	2102	2090	3	30.334	0.000	-30.334	-0.000	-0.000	0.000
2093	2092	2091	2090	3	30.334	0.000	-30.334	-0.000	-0.000	0.000
2114	2113	2112	2111	3	21.738	2.408	-16.966	-7.180	-0.000	0.000
2110	2109	2108	2107	3	21.738	2.408	-16.966	-7.180	-0.000	0.000
2111	2110	2109	2108	3	21.738	2.408	-16.966	-7.180	-0.000	0.000
2112	2111	2110	2109	3	21.738	2.408	-16.966	-7.180	-0.000	0.000
2113	2112	2111	2110	3	21.738	2.408	-16.966	-7.180	-0.000	0.000
2109	2108	2107	2106	3	58.576	0.000	-58.576	-0.000	-0.000	0.000
2108	2107	2106	2105	3	16.027	-4.391	-14.029	2.393	-0.000	0.000
2107	2106	2105	2104	3	30.334	0.000	-30.334	-0.000	-0.000	0.000
2116	2115	2114	2113	3	58.576	0.000	-58.576	-0.000	-0.000	0.000
2101	2093	2094	2100	3	9.079	0.000	-9.079	-0.000	-0.000	0.000
2100	2094	2093	2092	3	9.079	0.000	-9.079	-0.000	-0.000	0.000
2101	2093	2094	2095	3	9.079	0.000	-9.079	-0.000	-0.000	0.000
2095	2094	2093	2092	3	9.079	0.000	-9.079	-0.000	-0.000	0.000
2100	2094	2095	2096	3	30.334	0.000	-30.334	-0.000	-0.000	0.000
2101	2093	2092	2091	3	30.334	0.000	-30.334	-0.000	-0.000	0.000
2099	2100	2094	2093	3	30.334	0.000	-30.334	-0.000	-0.000	0.000
2102	2101	2093	2094	3	30.334	0.000	-30.334	-0.000	-0.000	0.000
2096	2095	2094	2093	3	30.334	0.000	-30.334	-0.000	-0.000	0.000
2099	2100	2094	2095	3	30.334	0.000	-30.334	-0.000	-0.000	0.000
2102	2101	2093	2092	3	30.334	0.000	-30.334	-0.000	-0.000	0.000
2142	2106	2107	2108	3	16.027	-4.391	-14.029	2.393	-0.000	0.000
2097	2099	2100	2094	3	30.334	0.000	-30.334	-0.000	-0.000	0.000
2097	2096	2095	2094	3	30.334	0.000	-30.334	-0.000	-0.000	0.000
2143	2142	2106	2107	3	30.334	0.000	-30.334	-0.000	-0.000	0.000
2132	2127	2128	2129	3	30.334	0.000	-30.334	-0.000	-0.000	0.000
2143	2142	2106	2105	3	30.334	0.000	-30.334	-0.000	-0.000	0.000
2102	2090	2091	2092	3	30.334	0.000	-30.334	-0.000	-0.000	0.000
2142	2143	2103	2104	3	30.334	0.000	-30.334	-0.000	-0.000	0.000
2132	2131	2130	2129	3	30.334	0.000	-30.334	-0.000	-0.000	0.000
2131	2130	2129	2128	3	30.334	0.000	-30.334	-0.000	-0.000	0.000
2130	2129	2128	2127	3	30.334	0.000	-30.334	-0.000	-0.000	0.000
2106	2105	2104	2103	3	30.334	0.000	-30.334	-0.000	-0.000	0.000
2106	2142	2143	2103	3	30.334	0.000	-30.334	-0.000	-0.000	0.000
2143	2103	2104	2105	3	30.334	0.000	-30.334	-0.000	-0.000	0.000
2142	2106	2105	2104	3	30.334	0.000	-30.334	-0.000	-0.000	0.000
2131	2132	2127	2128	3	30.334	0.000	-30.334	-0.000	-0.000	0.000
2100	2099	2097	2096	3	30.334	0.000	-30.334	-0.000	-0.000	0.000
2101	2102	2090	2091	3	30.334	0.000	-30.334	-0.000	-0.000	0.000
2130	2131	2132	2127	3	30.334	0.000	-30.334	-0.000	-0.000	0.000
2099	2097	2096	2095	3	30.334	0.000	-30.334	-0.000	-0.000	0.000
2131	2132	2127	2126	3	30.334	0.000	-30.334	-0.000	-0.000	0.000
2129	2128	2127	2126	3	30.334	0.000	-30.334	-0.000	-0.000	0.000
2142	2143	2103	2086	3	30.334	0.000	-30.334	-0.000	-0.000	0.000
2105	2104	2103	2086	3	30.334	0.000	-30.334	-0.000	-0.000	0.000
2100	2099	2097	2098	3	0.0	0.0	0.0	-0.0	-0.0	0.0
2092	2091	2090	2089	3	30.334	0.000	-30.334	-0.000	-0.000	0.000
2101	2102	2090	2089	3	30.334	0.000	-30.334	-0.000	-0.000	0.000
2132	2127	2126	2115	3	0.000	0.000	0.000	-0.000	-0.000	0.000
2128	2127	2126	2115	3	0.000	0.000	0.000	-0.000	-0.000	0.000
2132	2127	2126	2125	3	0.000	0.000	0.000	-0.000	-0.000	0.000
2128	2127	2126	2125	3	0.000	0.000	0.000	-0.000	-0.000	0.000
2143	2103	2086	2087	3	5.184	35.932	-14.355	-26.761	-0.000	0.000
2104	2103	2086	2087	3	5.184	35.932	-14.355	-26.761	-0.000	0.000
2104	2103	2086	2085	3	5.184	35.932	-14.355	-26.761	-0.000	0.000
2143	2103	2086	2085	3	5.184	35.932	-14.355	-26.761	-0.000	0.000
2091	2090	2089	2088	3	12.552	0.000	-12.552	-0.000	-0.000	0.000
2102	2090	2089	2088	3	12.552	0.000	-12.552	-0.000	-0.000	0.000
2127	2126	2115	2114	3	6.322	-2.485	0.707	-4.544	-0.000	0.000
2127	2126	2115	2116	3	0.527	-6.397	-1.695	7.565	-0.000	0.000
2127	2126	2125	2119	3	1.715	2.845	1.046	-5.607	-0.000	0.000
2103	2086	2087	2088	3	1.789	3.492	0.536	-5.816	-0.000	0.000
2090	2089	2088	2087	3	1.715	2.845	1.046	-5.607	-0.000	0.000
2133	2126	2127	2128	3	0.000	0.000	0.000	-0.000	-0.000	0.000
2133	2126	2127	2132	3	0.000	0.000	0.000	-0.000	-0.000	0.000
2133	2126	2115	2114	3	6.322	-2.485	0.707	-4.544	-0.000	0.000
2133	2126	2115	2116	3	0.527	-6.397	-1.695	7.565	-0.000	0.000
2133	2126	2125	2119	3	1.715	2.845	1.046	-5.607	-0.000	0.000
2115	2114	2113	2112	3	21.738	2.408	-16.966	-7.180	-0.000	0.000
2120	2119	2116	2115	3	21.738	2.408	-16.966	-7.180	-0.000	0.000
2120	2119	2116	2117	3	-0.778	-2.335	0.000	3.113	-0.000	0.000
2141	2109	2108	2107	3	58.576	0.000	-58.576	-0.000	-0.000	0.000
2137	2111	2110	2109	3	58.576	0.000	-58.576	-0.000	-0.000	0.000
2141	2109	2110	2111	3	58.576	0.000	-58.576	-0.000	-0.000	0.000
2137	2111	2112	2113	3	58.576	0.000	-58.576	-0.000	-0.000	0.000
2126	2115	2114	2113	3	-0.778	-2.335	0.000	3.113	-0.000	0.000
2126	2115	2116	2119	3	58.576	0.000	-58.576	-0.000	-0.000	0.000
2126	2115	2116	2117	3	58.576	0.000	-58.576	-0.000	-0.000	0.000
2138	2141	2109	2108	3	0.527	-6.397	-1.695	7.565	-0.000	0.000
2138	2137	2111	2112	3	0.527	-6.397	-1.695	7.565	-0.000	0.000
2138	2137	2111	2110	3	0.527	-6.397	-1.695	7.565	-0.000	0.000
2138	2141	2109	2110	3	0.527	-6.397	-1.695	7.565	-0.000	0.000
2141	2138	2137	2111	3	2.301	-1.464	0.837	-1.674	-0.000	0.000
2140	2138	2141	2109	3	2.301	-1.464	0.837	-1.674	-0.000	0.000
2137	2138	2141	2109	3	2.301	-1.464	0.837	-1.674	-0.000	0.000
2139	2138	2141	2109	3	2.301	-1.464	0.837	-1.674	-0.000	0.000
2140	2138	2137	2111	3	2.301	-1.464	0.837	-1.674	-0.000	0.000
2139	2138	2137	2111	3	2.301	-1.464	0.837	-1.674	-0.000	0.000
2088	2087	2086	2085	3	1.789	3.492	0.536	-5.816	-0.000	0.000
2126	2125	2119	2116	3	30.334	0.000	-30.334	-0.000	-0.000	0.000
2126	2125	2119	2120	3	30.334	0.000	-30.334	-0.000	-0.000	0.000
2119	2116	2115	2114	3	58.576	0.000	-58.576	-0.000	-0.000	0.000
2119	2125	2126	2115	3	1.715	2.845	1.046	-5.607	-0.000	0.000
2117	2116	2115	2114	3	58.576	0.000	-58.576	-0.000	-0.000	0.000
2121	2120	2119	2116	3	58.576	0.000	-58.576	-0.000	-0.000	0.000
2123	2120	2119	2116	3	58.576	0.000	-58.576	-0.000	-0.000	0.000
2134	2133	2126	2127	3	0.000	0.000	0.000	-0.000	-0.000	0.000
2135	2133	2126	2127	3	0.000	0.000	0.000	-0.000	-0.000	0.000
2136	2133	2126	2127	3	0.000	0.000	0.000	-0.000	-0.000	0.000
2135	2133	2126	2115	3	0.000	0.000	0.000	-0.000	-0.000	0.000
2134	2133	2126	2115	3	0.000	0.000	0.000	-0.000	-0.000	0.000
2136	2133	2126	2115	3	0.000	0.000	0.000	-0.000	-0.000	0.000
2135	2133	2126	2125	3	1.130	3.389	0.000	-4.519	-0.000	0.000
2136	2133	2126	2125	3	1.130	3.389	0.000	-4.519	-0.000	0.000
2134	2133	2126	2125	3	1.130	3.389	0.000	-4.519	-0.000	0.000
2164	2110	2109	2108	3	58.576	0.000	-58.576	-0.000	-0.000	0.000
2164	2110	2111	2112	3	58.576	0.000	-58.576	-0.000	-0.000	0.000
2164	2110	2111	2137	3	58.576	0.000	-58.576	-0.000	-0.000	0.000
2164	2110	2109	2141	3	58.576	0.000	-58.576	-0.000	-0.000	0.000
2153	2095	2094	2093	3	30.334	0.000	-30.334	-0.000	-0.000	0.000
2152	2092	2093	2094	3	30.334	0.000	-30.334	-0.000	-0.000	0.000
2158	2101	2093	2094	3	30.334	0.000	-30.334	-0.000	-0.000	0.000
2157	2100	2094	2093	3	30.334	0.000	-30.334	-0.000	-0.000	0.000
2157	2100	2094	2095	3	30.334	0.000	-30.334	-0.000	-0.000	0.000
2153	2095	2094	2100	3	30.334	0.000	-30.334	-0.000	-0.000	0.000
2152	2092	2093	2101	3	30.334	0.000	-30.334	-0.000	-0.000	0.000
2158	2101	2093	2092	3	30.334	0.000	-30.334	-0.000	-0.000	0.000
2151	2091	2092	2093	3	30.334	0.000	-30.334	-0.000	-0.000	0.000
2159	2102	2101	2093	3	30.334	0.000	-30.334	-0.000	-0.000	0.000
2154	2096	2095	2094	3	30.334	0.000	-30.334	-0.000	-0.000	0.000
2156	2099	2100	2094	3	30.334	0.000	-30.334	-0.000	-0.000	0.000
2161	2105	2106	2107	3	30.334	0.000	-30.334	-0.000	-0.000	0.000
2183	2142	2106	2107	3	30.334	0.000	-30.334	-0.000	-0.000	0.000
2168	2128	2129	2130	3	30.334	0.000	-30.334	-0.000	-0.000	0.000
2156	2099	2097	2096	3	30.334	0.000	-30.334	-0.000	-0.000	0.000
2171	2131	2130	2129	3	30.334	0.000	-30.334	-0.000	-0.000	0.000
2183	2142	2143	2103	3	30.334	0.000	-30.334	-0.000	-0.000	0.000
2169	2129	2128	2127	3	30.334	0.000	-30.334	-0.000	-0.000	0.000
2184	2143	2142	2106	3	30.334	0.000	-30.334	-0.000	-0.000	0.000
2170	2130	2129	2128	3	30.334	0.000	-30.334	-0.000	-0.000	0.000
2159	2102	2090	2091	3	30.334	0.000	-30.334	-0.000	-0.000	0.000
2158	2101	2102	2090	3	30.334	0.000	-30.334	-0.000	-0.000	0.000
2183	2142	2106	2105	3	30.334	0.000	-30.334	-0.000	-0.000	0.000
2184	2143	2103	2104	3	30.334	0.000	-30.334	-0.000	-0.000	0.000
2171	2131	2132	2127	3	30.334	0.000	-30.334	-0.000	-0.000	0.000
2168	2128	2127	2132	3	30.334	0.000	-30.334	-0.000	-0.000	0.000
2153	2095	2096	2097	3	30.334	0.000	-30.334	-0.000	-0.000	0.000
2154	2096	2097	2099	3	30.334	0.000	-30.334	-0.000	-0.000	0.000
2151	2091	2090	2102	3	30.334	0.000	-30.334	-0.000	-0.000	0.000
2160	2104	2103	2143	3	30.334	0.000	-30.334	-0.000	-0.000	0.000
2160	2104	2105	2106	3	30.334	0.000	-30.334	-0.000	-0.000	0.000
2157	2100	2099	2097	3	30.334	0.000	-30.334	-0.000	-0.000	0.000
2161	2105	2106	2142	3	30.334	0.000	-30.334	-0.000	-0.000	0.000
2170	2130	2131	2132	3	30.334	0.000	-30.334	-0.000	-0.000	0.000
2172	2132	2131	2130	3	30.334	0.000	-30.334	-0.000	-0.000	0.000
2169	2129	2130	2131	3	30.334	0.000	-30.334	-0.000	-0.000	0.000
2172	2132	2127	2128	3	30.334	0.000	-30.334	-0.000	-0.000	0.000
2152	2092	2091	2090	3	30.334	0.000	-30.334	-0.000	-0.000	0.000
2161	2105	2104	2103	3	30.334	0.000	-30.334	-0.000	-0.000	0.000
2172	2132	2127	2126	3	30.334	0.000	-30.334	-0.000	-0.000	0.000
2168	2128	2127	2126	3	30.334	0.000	-30.334	-0.000	-0.000	0.000
2161	2105	2104	2160	3	30.334	0.000	-30.334	-0.000	-0.000	0.000
2184	2143	2142	2183	3	30.334	0.000	-30.334	-0.000	-0.000	0.000
2170	2130	2129	2169	3	30.334	0.000	-30.334	-0.000	-0.000	0.000
2154	2096	2095	2153	3	30.334	0.000	-30.334	-0.000	-0.000	0.000
2159	2102	2101	2158	3	30.334	0.000	-30.334	-0.000	-0.000	0.000
2157	2100	2099	2156	3	30.334	0.000	-30.334	-0.000	-0.000	0.000
2169	2129	2128	2168	3	30.334	0.000	-30.334	-0.000	-0.000	0.000
2152	2092	2091	2151	3	30.334	0.000	-30.334	-0.000	-0.000	0.000
2171	2131	2130	2170	3	30.334	0.000	-30.334	-0.000	-0.000	0.000
2172	2132	2131	2171	3	30.334	0.000	-30.334	-0.000	-0.000	0.000
2184	2143	2103	2086	3	30.334	0.000	-30.334	-0.000	-0.000	0.000
2160	2104	2103	2086	3	30.334	0.000	-30.334	-0.000	-0.000	0.000
2154	2096	2097	2098	3	0.0	0.0	0.0	-0.0	-0.0	0.0
2156	2099	2097	2098	3	0.0	0.0	0.0	-0.0	-0.0	0.0
2151	2091	2090	2089	3	30.334	0.000	-30.334	-0.000	-0.000	0.000
2159	2102	2090	2089	3	30.334	0.000	-30.334	-0.000	-0.000	0.000
2165	2112	2111	2110	3	58.576	0.000	-58.576	-0.000	-0.000	0.000
2165	2112	2113	2114	3	58.576	0.000	-58.576	-0.000	-0.000	0.000
2167	2114	2113	2112	3	58.576	0.000	-58.576	-0.000	-0.000	0.000
2166	2113	2112	2111	3	58.576	0.000	-58.576	-0.000	-0.000	0.000
2163	2108	2109	2110	3	58.576	0.000	-58.576	-0.000	-0.000	0.000
2162	2107	2108	2109	3	58.576	0.000	-58.576	-0.000	-0.000	0.000
2163	2108	2107	2106	3	58.576	0.000	-58.576	-0.000	-0.000	0.000
2166	2113	2114	2115	3	58.576	0.000	-58.576	-0.000	-0.000	0.000
2165	2112	2111	2137	3	58.576	0.000	-58.576	-0.000	-0.000	0.000
2163	2108	2109	2141	3	58.576	0.000	-58.576	-0.000	-0.000	0.000
2163	2108	2107	2162	3	58.576	0.000	-58.576	-0.000	-0.000	0.000
2166	2113	2112	2165	3	58.576	0.000	-58.576	-0.000	-0.000	0.000
2167	2114	2113	2166	3	58.576	0.000	-58.576	-0.000	-0.000	0.000
2162	2107	2106	2142	3	-0.778	-2.335	0.000	3.113	-0.000	0.000
2162	2107	2106	2105	3	-0.778	-2.335	0.000	3.113	-0.000	0.000
2167	2114	2115	2116	3	58.576	0.000	-58.576	-0.000	-0.000	0.000
2167	2114	2115	2126	3	58.576	0.000	-58.576	-0.000	-0.000	0.000
2181	2141	2109	2108	3	-0.778	-2.335	0.000	3.113	-0.000	0.000
2181	2141	2109	2110	3	-0.778	-2.335	0.000	3.113	-0.000	0.000
2182	2141	2109	2108	3	-0.778	-2.335	0.000	3.113	-0.000	0.000
2174	2137	2111	2112	3	-0.778	-2.335	0.000	3.113	-0.000	0.000
2182	2141	2109	2110	3	-0.778	-2.335	0.000	3.113	-0.000	0.000
2173	2137	2111	2110	3	-0.778	-2.335	0.000	3.113	-0.000	0.000
2174	2137	2111	2110	3	-0.778	-2.335	0.000	3.113	-0.000	0.000
2173	2137	2111	2112	3	-0.778	-2.335	0.000	3.113	-0.000	0.000
2176	2139	2138	2141	3	0.628	1.883	0.000	-2.510	-0.000	0.000
2175	2139	2138	2140	3	0.628	1.883	0.000	-2.510	-0.000	0.000
2175	2139	2138	2137	3	0.628	1.883	0.000	-2.510	-0.000	0.000
2177	2139	2138	2140	3	0.628	1.883	0.000	-2.510	-0.000	0.000
2179	2140	2138	2137	3	0.628	1.883	0.000	-2.510	-0.000	0.000
2178	2140	2138	2137	3	0.628	1.883	0.000	-2.510	-0.000	0.000
2177	2139	2138	2137	3	0.628	1.883	0.000	-2.510	-0.000	0.000
2179	2140	2138	2139	3	0.628	1.883	0.000	-2.510	-0.000	0.000
2176	2139	2138	2137	3	0.628	1.883	0.000	-2.510	-0.000	0.000
2181	2141	2138	2137	3	0.628	1.883	0.000	-2.510	-0.000	0.000
2181	2141	2138	2139	3	0.628	1.883	0.000	-2.510	-0.000	0.000
2174	2137	2138	2139	3	0.628	1.883	0.000	-2.510	-0.000	0.000
2177	2139	2138	2141	3	0.628	1.883	0.000	-2.510	-0.000	0.000
2174	2137	2138	2140	3	0.628	1.883	0.000	-2.510	-0.000	0.000
2182	2141	2138	2139	3	0.628	1.883	0.000	-2.510	-0.000	0.000
2178	2140	2138	2141	3	0.628	1.883	0.000	-2.510	-0.000	0.000
2179	2140	2138	2141	3	0.628	1.883	0.000	-2.510	-0.000	0.000
2180	2140	2138	2137	3	0.628	1.883	0.000	-2.510	-0.000	0.000
2173	2137	2138	2140	3	0.628	1.883	0.000	-2.510	-0.000	0.000
2173	2137	2138	2139	3	0.628	1.883	0.000	-2.510	-0.000	0.000
2178	2140	2138	2139	3	0.628	1.883	0.000	-2.510	-0.000	0.000
2174	2137	2138	2141	3	0.628	1.883	0.000	-2.510	-0.000	0.000
2182	2141	2138	2140	3	0.628	1.883	0.000	-2.510	-0.000	0.000
2176	2139	2138	2140	3	0.628	1.883	0.000	-2.510	-0.000	0.000
2175	2139	2138	2141	3	0.628	1.883	0.000	-2.510	-0.000	0.000
2182	2141	2138	2137	3	0.628	1.883	0.000	-2.510	-0.000	0.000
2173	2137	2138	2141	3	0.628	1.883	0.000	-2.510	-0.000	0.000
2180	2140	2138	2139	3	0.628	1.883	0.000	-2.510	-0.000	0.000
2181	2141	2138	2140	3	0.628	1.883	0.000	-2.510	-0.000	0.000
2180	2140	2138	2141	3	0.628	1.883	0.000	-2.510	-0.000	0.000
2149	2088	2087	2148	3	0.628	1.883	0.000	-2.510	-0.000	0.000
2150	2088	2087	2147	3	0.628	1.883	0.000	-2.510	-0.000	0.000
2149	2088	2087	2147	3	0.628	1.883	0.000	-2.510	-0.000	0.000
2150	2088	2087	2148	3	0.628	1.883	0.000	-2.510	-0.000	0.000
2150	2088	2087	2086	3	-4.096	5.088	2.966	-3.958	-0.000	0.000
2149	2088	2087	2086	3	-4.096	5.088	2.966	-3.958	-0.000	0.000
2148	2087	2088	2089	3	0.979	2.937	0.000	-3.916	-0.000	0.000
2147	2087	2088	2089	3	0.979	2.937	0.000	-3.916	-0.000	0.000
2148	2087	2086	2103	3	1.172	3.515	0.000	-4.686	-0.000	0.000
2144	2085	2086	2103	3	1.172	3.515	0.000	-4.686	-0.000	0.000
2147	2087	2086	2103	3	1.172	3.515	0.000	-4.686	-0.000	0.000
2145	2085	2086	2103	3	1.172	3.515	0.000	-4.686	-0.000	0.000
2146	2085	2086	2103	3	1.172	3.515	0.000	-4.686	-0.000	0.000
2147	2087	2086	2085	3	1.172	3.515	0.000	-4.686	-0.000	0.000
2145	2085	2086	2087	3	1.172	3.515	0.000	-4.686	-0.000	0.000
2148	2087	2086	2085	3	1.172	3.515	0.000	-4.686	-0.000	0.000
2146	2085	2086	2087	3	1.172	3.515	0.000	-4.686	-0.000	0.000
2144	2085	2086	2087	3	1.172	3.515	0.000	-4.686	-0.000	0.000
2149	2088	2089	2090	3	1.590	4.770	0.000	-6.360	-0.000	0.000
2150	2088	2089	2090	3	1.590	4.770	0.000	-6.360	-0.000	0.000
2155	2098	2097	2099	3	0.0	0.0	0.0	-0.0	-0.0	0.0
2155	2098	2097	2096	3	0.0	0.0	0.0	-0.0	-0.0	0.0
2098	2097	2096	2095	3	0.0	0.0	0.0	-0.0	-0.0	0.0
2125	2126	2115	2114	3	2.874	0.582	2.092	-5.548	-0.000	0.000
2125	2126	2115	2116	3	1.046	-1.046	0.000	-0.000	-0.000	0.000
2089	2088	2087	2086	3	16.736	-16.736	0.000	-0.000	-0.000	0.000
2125	2119	2116	2115	3	1.046	-1.046	0.000	-0.000	-0.000	0.000
2125	2119	2116	2117	3	9.079	0.000	-9.079	-0.000	-0.000	0.000
2194	2193	2192	2191	3	30.334	0.000	-30.334	-0.000	-0.000	0.000
2193	2201	2202	2190	3	30.334	0.000	-30.334	-0.000	-0.000	0.000
2193	2192	2191	2190	3	30.334	0.000	-30.334	-0.000	-0.000	0.000
2214	2213	2212	2211	3	21.738	2.408	-16.966	-7.180	-0.000	0.000
2210	2209	2208	2207	3	21.738	2.408	-16.966	-7.180	-0.000	0.000
2211	2210	2209	2208	3	21.738	2.408	-16.966	-7.180	-0.000	0.000
2212	2211	2210	2209	3	21.738	2.408	-16.966	-7.180	-0.000	0.000
2213	2212	2211	2210	3	21.738	2.408	-16.966	-7.180	-0.000	0.000
2209	2208	2207	2206	3	58.576	0.000	-58.576	-0.000	-0.000	0.000
2208	2207	2206	2205	3	16.027	-4.391	-14.029	2.393	-0.000	0.000
2207	2206	2205	2204	3	30.334	0.000	-30.334	-0.000	-0.000	0.000
2216	2215	2214	2213	3	58.576	0.000	-58.576	-0.000	-0.000	0.000
2201	2193	2194	2200	3	9.079	0.000	-9.079	-0.000	-0.000	0.000
2200	2194	2193	2192	3	9.079	0.000	-9.079	-0.000	-0.000	0.000
2201	2193	2194	2195	3	9.079	0.000	-9.079	-0.000	-0.000	0.000
2195	2194	2193	2192	3	9.079	0.000	-9.079	-0.000	-0.000	0.000
2200	2194	2195	2196	3	30.334	0.000	-30.334	-0.000	-0.000	0.000
2201	2193	2192	2191	3	30.334	0.000	-30.334	-0.000	-0.000	0.000
2199	2200	2194	2193	3	30.334	0.000	-30.334	-0.000	-0.000	0.000
2202	2201	2193	2194	3	30.334	0.000	-30.334	-0.000	-0.000	0.000
2196	2195	2194	2193	3	30.334	0.000	-30.334	-0.000	-0.000	0.000
2199	2200	2194	2195	3	30.334	0.000	-30.334	-0.000	-0.000	0.000
2202	2201	2193	2192	3	30.334	0.000	-30.334	-0.000	-0.000	0.000
2242	2206	2207	2208	3	16.027	-4.391	-14.029	2.393	-0.000	0.000
2197	2199	2200	2194	3	30.334	0.000	-30.334	-0.000	-0.000	0.000
2197	2196	2195	2194	3	30.334	0.000	-30.334	-0.000	-0.000	0.000
2243	2242	2206	2207	3	30.334	0.000	-30.334	-0.000	-0.000	0.000
2232	2227	2228	2229	3	30.334	0.000	-30.334	-0.000	-0.000	0.000
2243	2242	2206	2205	3	30.334	0.000	-30.334	-0.000	-0.000	0.000
2202	2190	2191	2192	3	30.334	0.000	-30.334	-0.000	-0.000	0.000
2242	2243	2203	2204	3	30.334	0.000	-30.334	-0.000	-0.000	0.000
2232	2231	2230	2229	3	30.334	0.000	-30.334	-0.000	-0.000	0.000
2231	2230	2229	2228	3	30.334	0.000	-30.334	-0.000	-0.000	0.000
2230	2229	2228	2227	3	30.334	0.000	-30.334	-0.000	-0.000	0.000
2206	2205	2204	2203	3	30.334	0.000	-30.334	-0.000	-0.000	0.000
2206	2242	2243	2203	3	30.334	0.000	-30.334	-0.000	-0.000	0.000
2243	2203	2204	2205	3	30.334	0.000	-30.334	-0.000	-0.000	0.000
2242	2206	2205	2204	3	30.334	0.000	-30.334	-0.000	-0.000	0.000
2231	2232	2227	2228	3	30.334	0.000	-30.334	-0.000	-0.000	0.000
2200	2199	2197	2196	3	30.334	0.000	-30.334	-0.000	-0.000	0.000
2201	2202	2190	2191	3	30.334	0.000	-30.334	-0.000	-0.000	0.000
2230	2231	2232	2227	3	30.334	0.000	-30.334	-0.000	-0.000	0.000
2199	2197	2196	2195	3	30.334	0.000	-30.334	-0.000	-0.000	0.000
2231	2232	2227	2226	3	30.334	0.000	-30.334	-0.000	-0.000	0.000
2229	2228	2227	2226	3	30.334	0.000	-30.334	-0.000	-0.000	0.000
2242	2243	2203	2186	3	30.334	0.000	-30.334	-0.000	-0.000	0.000
2205	2204	2203	2186	3	30.334	0.000	-30.334	-0.000	-0.000	0.000
2200	2199	2197	2198	3	0.0	0.0	0.0	-0.0	-0.0	0.0
2192	2191	2190	2189	3	30.334	0.000	-30.334	-0.000	-0.000	0.000
2201	2202	2190	2189	3	30.334	0.000	-30.334	-0.000	-0.000	0.000
2232	2227	2226	2215	3	0.000	0.000	0.000	-0.000	-0.000	0.000
2228	2227	2226	2215	3	0.000	0.000	0.000	-0.000	-0.000	0.000
2232	2227	2226	2225	3	0.000	0.000	0.000	-0.000	-0.000	0.000
2228	2227	2226	2225	3	0.000	0.000	0.000	-0.000	-0.000	0.000
2243	2203	2186	2187	3	5.184	35.932	-14.355	-26.761	-0.000	0.000
2204	2203	2186	2187	3	5.184	35.932	-14.355	-26.761	-0.000	0.000
2204	2203	2186	2185	3	5.184	35.932	-14.355	-26.761	-0.000	0.000
2243	2203	2186	2185	3	5.184	35.932	-14.355	-26.761	-0.000	0.000
2191	2190	2189	2188	3	12.552	0.000	-12.552	-0.000	-0.000	0.000
2202	2190	2189	2188	3	12.552	0.000	-12.552	-0.000	-0.000	0.000
2227	2226	2215	2214	3	6.322	-2.485	0.707	-4.544	-0.000	0.000
2227	2226	2215	2216	3	0.527	-6.397	-1.695	7.565	-0.000	0.000
2227	2226	2225	2219	3	1.715	2.845	1.046	-5.607	-0.000	0.000
2203	2186	2187	2188	3	1.789	3.492	0.536	-5.816	-0.000	0.000
2190	2189	2188	2187	3	1.715	2.845	1.046	-5.607	-0.000	0.000
2233	2226	2227	2228	3	0.000	0.000	0.000	-0.000	-0.000	0.000
2233	2226	2227	2232	3	0.000	0.000	0.000	-0.000	-0.000	0.000
2233	2226	2215	2214	3	6.322	-2.485	0.707	-4.544	-0.000	0.000
2233	2226	2215	2216	3	0.527	-6.397	-1.695	7.565	-0.000	0.000
2233	2226	2225	2219	3	1.715	2.845	1.046	-5.607	-0.000	0.000
2215	2214	2213	2212	3	21.738	2.408	-16.966	-7.180	-0.000	0.000
2220	2219	2216	2215	3	21.738	2.408	-16.966	-7.180	-0.000	0.000
2220	2219	2216	2217	3	-0.778	-2.335	0.000	3.113	-0.000	0.000
2241	2209	2208	2207	3	58.576	0.000	-58.576	-0.000	-0.000	0.000
2237	2211	2210	2209	3	58.576	0.000	-58.576	-0.000	-0.000	0.000
2241	2209	2210	2211	3	58.576	0.000	-58.576	-0.000	-0.000	0.000
2237	2211	2212	2213	3	58.576	0.000	-58.576	-0.000	-0.000	0.000
2226	2215	2214	2213	3	-0.778	-2.335	0.000	3.113	-0.000	0.000
2226	2215	2216	2219	3	58.576	0.000	-58.576	-0.000	-0.000	0.000
2226	2215	2216	2217	3	58.576	0.000	-58.576	-0.000	-0.000	0.000
2238	2241	2209	2208	3	0.527	-6.397	-1.695	7.565	-0.000	0.000
2238	2237	2211	2212	3	0.527	-6.397	-1.695	7.565	-0.000	0.000
2238	2237	2211	2210	3	0.527	-6.397	-1.695	7.565	-0.000	0.000
2238	2241	2209	2210	3	0.527	-6.397	-1.695	7.565	-0.000	0.000
2241	2238	2237	2211	3	2.301	-1.464	0.837	-1.674	-0.000	0.000
2240	2238	2241	2209	3	2.301	-1.464	0.837	-1.674	-0.000	0.000
2237	2238	2241	2209	3	2.301	-1.464	0.837	-1.674	-0.000	0.000
2239	2238	2241	2209	3	2.301	-1.464	0.837	-1.674	-0.000	0.000
2240	2238	2237	2211	3	2.301	-1.464	0.837	-1.674	-0.000	0.000
2239	2238	2237	2211	3	2.301	-1.464	0.837	-1.674	-0.000	0.000
2188	2187	2186	2185	3	1.789	3.492	0.536	-5.816	-0.000	0.000
2226	2225	2219	2216	3	30.334	0.000	-30.334	-0.000	-0.000	0.000
2226	2225	2219	2220	3	30.334	0.000	-30.334	-0.000	-0.000	0.000
2219	2216	2215	2214	3	58.576	0.000	-58.576	-0.000	-0.000	0.000
2219	2225	2226	2215	3	1.715	2.845	1.046	-5.607	-0.000	0.000
2217	2216	2215	2214	3	58.576	0.000	-58.576	-0.000	-0.000	0.000
2221	2220	2219	2216	3	58.576	0.000	-58.576	-0.000	-0.000	0.000
2223	2220	2219	2216	3	58.576	0.000	-58.576	-0.000	-0.000	0.000
2234	2233	2226	2227	3	0.000	0.000	0.000	-0.000	-0.000	0.000
2235	2233	2226	2227	3	0.000	0.000	0.000	-0.000	-0.000	0.000
2236	2233	2226	2227	3	0.000	0.000	0.000	-0.000	-0.000	0.000
2235	2233	2226	2215	3	0.000	0.000	0.000	-0.000	-0.000	0.000
2234	2233	2226	2215	3	0.000	0.000	0.000	-0.000	-0.000	0.000
2236	2233	2226	2215	3	0.000	0.000	0.000	-0.000	-0.000	0.000
2235	2233	2226	2225	3	1.130	3.389	0.000	-4.519	-0.000	0.000
2236	2233	2226	2225	3	1.130	3.389	0.000	-4.519	-0.000	0.000
2234	2233	2226	2225	3	1.130	3.389	0.000	-4.519	-0.000	0.000
2264	2210	2209	2208	3	58.576	0.000	-58.576	-0.000	-0.000	0.000
2264	2210	2211	2212	3	58.576	0.000	-58.576	-0.000	-0.000	0.000
2264	2210	2211	2237	3	58.576	0.000	-58.576	-0.000	-0.000	0.000
2264	2210	2209	2241	3	58.576	0.000	-58.576	-0.000	-0.000	0.000
2253	2195	2194	2193	3	30.334	0.000	-30.334	-0.000	-0.000	0.000
2252	2192	2193	2194	3	30.334	0.000	-30.334	-0.000	-0.000	0.000
2258	2201	2193	2194	3	30.334	0.000	-30.334	-0.000	-0.000	0.000
2257	2200	2194	2193	3	30.334	0.000	-30.334	-0.000	-0.000	0.000
2257	2200	2194	2195	3	30.334	0.000	-30.334	-0.000	-0.000	0.000
2253	2195	2194	2200	3	30.334	0.000	-30.334	-0.000	-0.000	0.000
2252	2192	2193	2201	3	30.334	0.000	-30.334	-0.000	-0.000	0.000
2258	2201	2193	2192	3	30.334	0.000	-30.334	-0.000	-0.000	0.000
2251	2191	2192	2193	3	30.334	0.000	-30.334	-0.000	-0.000	0.000
2259	2202	2201	2193	3	30.334	0.000	-30.334	-0.000	-0.000	0.000
2254	2196	2195	2194	3	30.334	0.000	-30.334	-0.000	-0.000	0.000
2256	2199	2200	2194	3	30.334	0.000	-30.334	-0.000	-0.000	0.000
2261	2205	2206	2207	3	30.334	0.000	-30.334	-0.000	-0.000	0.000
2283	2242	2206	2207	3	30.334	0.000	-30.334	-0.000	-0.000	0.000
2268	2228	2229	2230	3	30.334	0.000	-30.334	-0.000	-0.000	0.000
2256	2199	2197	2196	3	30.334	0.000	-30.334	-0.000	-0.000	0.000
2271	2231	2230	2229	3	30.334	0.000	-30.334	-0.000	-0.000	0.000
2283	2242	2243	2203	3	30.334	0.000	-30.334	-0.000	-0.000	0.000
2269	2229	2228	2227	3	30.334	0.000	-30.334	-0.000	-0.000	0.000
2284	2243	2242	2206	3	30.334	0.000	-30.334	-0.000	-0.000	0.000
2270	2230	2229	2228	3	30.334	0.000	-30.334	-0.000	-0.000	0.000
2259	2202	2190	2191	3	30.334	0.000	-30.334	-0.000	-0.000	0.000
2258	2201	2202	2190	3	30.334	0.000	-30.334	-0.000	-0.000	0.000
2283	2242	2206	2205	3	30.334	0.000	-30.334	-0.000	-0.000	0.000
2284	2243	2203	2204	3	30.334	0.000	-30.334	-0.000	-0.000	0.000
2271	2231	2232	2227	3	30.334	0.000	-30.334	-0.000	-0.000	0.000
2268	2228	2227	2232	3	30.334	0.000	-30.334	-0.000	-0.000	0.000
2253	2195	2196	2197	3	30.334	0.000	-30.334	-0.000	-0.000	0.000
2254	2196	2197	2199	3	30.334	0.000	-30.334	-0.000	-0.000	0.000
2251	2191	2190	2202	3	30.334	0.000	-30.334	-0.000	-0.000	0.000
2260	2204	2203	2243	3	30.334	0.000	-30.334	-0.000	-0.000	0.000
2260	2204	2205	2206	3	30.334	0.000	-30.334	-0.000	-0.000	0.000
2257	2200	2199	2197	3	30.334	0.000	-30.334	-0.000	-0.000	0.000
2261	2205	2206	2242	3	30.334	0.000	-30.334	-0.000	-0.000	0.000
2270	2230	2231	2232	3	30.334	0.000	-30.334	-0.000	-0.000	0.000
2272	2232	2231	2230	3	30.334	0.000	-30.334	-0.000	-0.000	0.000
2269	2229	2230	2231	3	30.334	0.000	-30.334	-0.000	-0.000	0.000
2272	2232	2227	2228	3	30.334	0.000	-30.334	-0.000	-0.000	0.000
2252	2192	2191	2190	3	30.334	0.000	-30.334	-0.000	-0.000	0.000
2261	2205	2204	2203	3	30.334	0.000	-30.334	-0.000	-0.000	0.000
2272	2232	2227	2226	3	30.334	0.000	-30.334	-0.000	-0.000	0.000
2268	2228	2227	2226	3	30.334	0.000	-30.334	-0.000	-0.000	0.000
2261	2205	2204	2260	3	30.334	0.000	-30.334	-0.000	-0.000	0.000
2284	2243	2242	2283	3	30.334	0.000	-30.334	-0.000	-0.000	0.000
2270	2230	2229	2269	3	30.334	0.000	-30.334	-0.000	-0.000	0.000
2254	2196	2195	2253	3	30.334	0.000	-30.334	-0.000	-0.000	0.000
2259	2202	2201	2258	3	30.334	0.000	-30.334	-0.000	-0.000	0.000
2257	2200	2199	2256	3	30.334	0.000	-30.334	-0.000	-0.000	0.000
2269	2229	2228	2268	3	30.334	0.000	-30.334	-0.000	-0.000	0.000
2252	2192	2191	2251	3	30.334	0.000	-30.334	-0.000	-0.000	0.000
2271	2231	2230	2270	3	30.334	0.000	-30.334	-0.000	-0.000	0.000
2272	2232	2231	2271	3	30.334	0.000	-30.334	-0.000	-0.000	0.000
2284	2243	2203	2186	3	30.334	0.000	-30.334	-0.000	-0.000	0.000
2260	2204	2203	2186	3	30.334	0.000	-30.334	-0.000	-0.000	0.000
2254	2196	2197	2198	3	0.0	0.0	0.0	-0.0	-0.0	0.0
2256	2199	2197	2198	3	0.0	0.0	0.0	-0.0	-0.0	0.0
2251	2191	2190	2189	3	30.334	0.000	-30.334	-0.000	-0.000	0.000
2259	2202	2190	2189	3	30.334	0.000	-30.334	-0.000	-0.000	0.000
2265	2212	2211	2210	3	58.576	0.000	-58.576	-0.000	-0.000	0.000
2265	2212	2213	2214	3	58.576	0.000	-58.576	-0.000	-0.000	0.000
2267	2214	2213	2212	3	58.576	0.000	-58.576	-0.000	-0.000	0.000
2266	2213	2212	2211	3	58.576	0.000	-58.576	-0.000	-0.000	0.000
2263	2208	2209	2210	3	58.576	0.000	-58.576	-0.000	-0.000	0.000
2262	2207	2208	2209	3	58.576	0.000	-58.576	-0.000	-0.000	0.000
2263	2208	2207	2206	3	58.576	0.000	-58.576	-0.000	-0.000	0.000
2266	2213	2214	2215	3	58.576	0.000	-58.576	-0.000	-0.000	0.000
2265	2212	2211	2237	3	58.576	0.000	-58.576	-0.000	-0.000	0.000
2263	2208	2209	2241	3	58.576	0.000	-58.576	-0.000	-0.000	0.000
2263	2208	2207	2262	3	58.576	0.000	-58.576	-0.000	-0.000	0.000
2266	2213	2212	2265	3	58.576	0.000	-58.576	-0.000	-0.000	0.000
2267	2214	2213	2266	3	58.576	0.000	-58.576	-0.000	-0.000	0.000
2262	2207	2206	2242	3	-0.778	-2.335	0.000	3.113	-0.000	0.000
2262	2207	2206	2205	3	-0.778	-2.335	0.000	3.113	-0.000	0.000
2267	2214	2215	2216	3	58.576	0.000	-58.576	-0.000	-0.000	0.000
2267	2214	2215	2226	3	58.576	0.000	-58.576	-0.000	-0.000	0.000
2281	2241	2209	2208	3	-0.778	-2.335	0.000	3.113	-0.000	0.000
2281	2241	2209	2210	3	-0.778	-2.335	0.000	3.113	-0.000	0.000
2282	2241	2209	2208	3	-0.778	-2.335	0.000	3.113	-0.000	0.000
2274	2237	2211	2212	3	-0.778	-2.335	0.000	3.113	-0.000	0.000
2282	2241	2209	2210	3	-0.778	-2.335	0.000	3.113	-0.000	0.000
2273	2237	2211	2210	3	-0.778	-2.335	0.000	3.113	-0.000	0.000
2274	2237	2211	2210	3	-0.778	-2.335	0.000	3.113	-0.000	0.000
2273	2237	2211	2212	3	-0.778	-2.335	0.000	3.113	-0.000	0.000
2276	2239	2238	2241	3	0.628	1.883	0.000	-2.510	-0.000	0.000
2275	2239	2238	2240	3	0.628	1.883	0.000	-2.510	-0.000	0.000
2275	2239	2238	2237	3	0.628	1.883	0.000	-2.510	-0.000	0.000
2277	2239	2238	2240	3	0.628	1.883	0.000	-2.510	-0.000	0.000
2279	2240	2238	2237	3	0.628	1.883	0.000	-2.510	-0.000	0.000
2278	2240	2238	2237	3	0.628	1.883	0.000	-2.510	-0.000	0.000
2277	2239	2238	2237	3	0.628	1.883	0.000	-2.510	-0.000	0.000
2279	2240	2238	2239	3	0.628	1.883	0.000	-2.510	-0.000	0.000
2276	2239	2238	2237	3	0.628	1.883	0.000	-2.510	-0.000	0.000
2281	2241	2238	2237	3	0.628	1.883	0.000	-2.510	-0.000	0.000
2281	2241	2238	2239	3	0.628	1.883	0.000	-2.510	-0.000	0.000
2274	2237	2238	2239	3	0.628	1.883	0.000	-2.510	-0.000	0.000
2277	2239	2238	2241	3	0.628	1.883	0.000	-2.510	-0.000	0.000
2274	2237	2238	2240	3	0.628	1.883	0.000	-2.510	-0.000	0.000
2282	2241	2238	2239	3	0.628	1.883	0.000	-2.510	-0.000	0.000
2278	2240	2238	2241	3	0.628	1.883	0.000	-2.510	-0.000	0.000
2279	2240	2238	2241	3	0.628	1.883	0.000	-2.510	-0.000	0.000
2280	2240	2238	2237	3	0.628	1.883	0.000	-2.510	-0.000	0.000
2273	2237	2238	2240	3	0.628	1.883	0.000	-2.510	-0.000	0.000
2273	2237	2238	2239	3	0.628	1.883	0.000	-2.510	-0.000	0.000
2278	2240	2238	2239	3	0.628	1.883	0.000	-2.510	-0.000	0.000
2274	2237	2238	2241	3	0.628	1.883	0.000	-2.510	-0.000	0.000
2282	2241	2238	2240	3	0.628	1.883	0.000	-2.510	-0.000	0.000
2276	2239	2238	2240	3	0.628	1.883	0.000	-2.510	-0.000	0.000
2275	2239	2238	2241	3	0.628	1.883	0.000	-2.510	-0.000	0.000
2282	2241	2238	2237	3	0.628	1.883	0.000	-2.510	-0.000	0.000
2273	2237	2238	2241	3	0.628	1.883	0.000	-2.510	-0.000	0.000
2280	2240	2238	2239	3	0.628	1.883	0.000	-2.510	-0.000	0.000
2281	2241	2238	2240	3	0.628	1.883	0.000	-2.510	-0.000	0.000
2280	2240	2238	2241	3	0.628	1.883	0.000	-2.510	-0.000	0.000
2249	2188	2187	2248	3	0.628	1.883	0.000	-2.510	-0.000	0.000
2250	2188	2187	2247	3	0.628	1.883	0.000	-2.510	-0.000	0.000
2249	2188	2187	2247	3	0.628	1.883	0.000	-2.510	-0.000	0.000
2250	2188	2187	2248	3	0.628	1.883	0.000	-2.510	-0.000	0.000
2250	2188	2187	2186	3	-4.096	5.088	2.966	-3.958	-0.000	0.000
2249	2188	2187	2186	3	-4.096	5.088	2.966	-3.958	-0.000	0.000
2248	2187	2188	2189	3	0.979	2.937	0.000	-3.916	-0.000	0.000
2247	2187	2188	2189	3	0.979	2.937	0.000	-3.916	-0.000	0.000
2248	2187	2186	2203	3	1.172	3.515	0.000	-4.686	-0.000	0.000
2244	2185	2186	2203	3	1.172	3.515	0.000	-4.686	-0.000	0.000
2247	2187	2186	2203	3	1.172	3.515	0.000	-4.686	-0.000	0.000
2245	2185	2186	2203	3	1.172	3.515	0.000	-4.686	-0.000	0.000
2246	2185	2186	2203	3	1.172	3.515	0.000	-4.686	-0.000	0.000
2247	2187	2186	2185	3	1.172	3.515	0.000	-4.686	-0.000	0.000
2245	2185	2186	2187	3	1.172	3.515	0.000	-4.686	-0.000	0.000
2248	2187	2186	2185	3	1.172	3.515	0.000	-4.686	-0.000	0.000
2246	2185	2186	2187	3	1.172	3.515	0.000	-4.686	-0.000	0.000
2244	2185	2186	2187	3	1.172	3.515	0.000	-4.686	-0.000	0.000
2249	2188	2189	2190	3	1.590	4.770	0.000	-6.360	-0.000	0.000
2250	2188	2189	2190	3	1.590	4.770	0.000	-6.360	-0.000	0.000
2255	2198	2197	2199	3	0.0	0.0	0.0	-0.0	-0.0	0.0
2255	2198	2197	2196	3	0.0	0.0	0.0	-0.0	-0.0	0.0
2198	2197	2196	2195	3	0.0	0.0	0.0	-0.0	-0.0	0.0
2225	2226	2215	2214	3	2.874	0.582	2.092	-5.548	-0.000	0.000
2225	2226	2215	2216	3	1.046	-1.046	0.000	-0.000	-0.000	0.000
2189	2188	2187	2186	3	16.736	-16.736	0.000	-0.000	-0.000	0.000
2225	2219	2216	2215	3	1.046	-1.046	0.000	-0.000	-0.000	0.000
2225	2219	2216	2217	3	9.079	0.000	-9.079	-0.000	-0.000	0.000
2294	2293	2292	2291	3	30.334	0.000	-30.334	-0.000	-0.000	0.000
2293	2301	2302	2290	3	30.334	0.000	-30.334	-0.000	-0.000	0.000
2293	2292	2291	2290	3	30.334	0.000	-30.334	-0.000	-0.000	0.000
2314	2313	2312	2311	3	21.738	2.408	-16.966	-7.180	-0.000	0.000
2310	2309	2308	2307	3	21.738	2.408	-16.966	-7.180	-0.000	0.000
2311	2310	2309	2308	3	21.738	2.408	-16.966	-7.180	-0.000	0.000
2312	2311	2310	2309	3	21.738	2.408	-16.966	-7.180	-0.000	0.000
2313	2312	2311	2310	3	21.738	2.408	-16.966	-7.180	-0.000	0.000
2309	2308	2307	2306	3	58.576	0.000	-58.576	-0.000	-0.000	0.000
2308	2307	2306	2305	3	16.027	-4.391	-14.029	2.393	-0.000	0.000
2307	2306	2305	2304	3	30.334	0.000	-30.334	-0.000	-0.000	0.000
2316	2315	2314	2313	3	58.576	0.000	-58.576	-0.000	-0.000	0.000
2301	2293	2294	2300	3	9.079	0.000	-9.079	-0.000	-0.000	0.000
2300	2294	2293	2292	3	9.079	0.000	-9.079	-0.000	-0.000	0.000
2301	2293	2294	2295	3	9.079	0.000	-9.079	-0.000	-0.000	0.000
2295	2294	2293	2292	3	9.079	0.000	-9.079	-0.000	-0.000	0.000
2300	2294	2295	2296	3	30.334	0.000	-30.334	-0.000	-0.000	0.000
2301	2293	2292	2291	3	30.334	0.000	-30.334	-0.000	-0.000	0.000
2299	2300	2294	2293	3	30.334	0.000	-30.334	-0.000	-0.000	0.000
2302	2301	2293	2294	3	30.334	0.000	-30.334	-0.000	-0.000	0.000
2296	2295	2294	2293	3	30.334	0.000	-30.334	-0.000	-0.000	0.000
2299	2300	2294	2295	3	30.334	0.000	-30.334	-0.000	-0.000	0.000
2302	2301	2293	2292	3	30.334	0.000	-30.334	-0.000	-0.000	0.000
2342	2306	2307	2308	3	16.027	-4.391	-14.029	2.393	-0.000	0.000
2297	2299	2300	2294	3	30.334	0.000	-30.334	-0.000	-0.000	0.000
2297	2296	2295	2294	3	30.334	0.000	-30.334	-0.000	-0.000	0.000
2343	2342	2306	2307	3	30.334	0.000	-30.334	-0.000	-0.000	0.000
2332	2327	2328	2329	3	30.334	0.000	-30.334	-0.000	-0.000	0.000
2343	2342	2306	2305	3	30.334	0.000	-30.334	-0.000	-0.000	0.000
2302	2290	2291	2292	3	30.334	0.000	-30.334	-0.000	-0.000	0.000
2342	2343	2303	2304	3	30.334	0.000	-30.334	-0.000	-0.000	0.000
2332	2331	2330	2329	3	30.334	0.000	-30.334	-0.000	-0.000	0.000
2331	2330	2329	2328	3	30.334	0.000	-30.334	-0.000	-0.000	0.000
2330	2329	2328	2327	3	30.334	0.000	-30.334	-0.000	-0.000	0.000
2306	2305	2304	2303	3	30.334	0.000	-30.334	-0.000	-0.000	0.000
2306	2342	2343	2303	3	30.334	0.000	-30.334	-0.000	-0.000	0.000
2343	2303	2304	2305	3	30.334	0.000	-30.334	-0.000	-0.000	0.000
2342	2306	2305	2304	3	30.334	0.000	-30.334	-0.000	-0.000	0.000
2331	2332	2327	2328	3	30.334	0.000	-30.334	-0.000	-0.000	0.000
2300	2299	2297	2296	3	30.334	0.000	-30.334	-0.000	-0.000	0.000
2301	2302	2290	2291	3	30.334	0.000	-30.334	-0.000	-0.000	0.000
2330	2331	2332	2327	3	30.334	0.000	-30.334	-0.000	-0.000	0.000
2299	2297	2296	2295	3	30.334	0.000	-30.334	-0.000	-0.000	0.000
2331	2332	2327	2326	3	30.334	0.000	-30.334	-0.000	-0.000	0.000
2329	2328	2327	2326	3	30.334	0.000	-30.334	-0.000	-0.000	0.000
2342	2343	2303	2286	3	30.334	0.000	-30.334	-0.000	-0.000	0.000
2305	2304	2303	2286	3	30.334	0.000	-30.334	-0.000	-0.000	0.000
2300	2299	2297	2298	3	0.0	0.0	0.0	-0.0	-0.0	0.0
2292	2291	2290	2289	3	30.334	0.000	-30.334	-0.000	-0.000	0.000
2301	2302	2290	2289	3	30.334	0.000	-30.334	-0.000	-0.000	0.000
2332	2327	2326	2315	3	0.000	0.000	0.000	-0.000	-0.000	0.000
2328	2327	2326	2315	3	0.000	0.000	0.000	-0.000	-0.000	0.000
2332	2327	2326	2325	3	0.000	0.000	0.000	-0.000	-0.000	0.000
2328	2327	2326	2325	3	0.000	0.000	0.000	-0.000	-0.000	0.000
2343	2303	2286	2287	3	5.184	35.932	-14.355	-26.761	-0.000	0.000
2304	2303	2286	2287	3	5.184	35.932	-14.355	-26.761	-0.000	0.000
2304	2303	2286	2285	3	5.184	35.932	-14.355	-26.761	-0.000	0.000
2343	2303	2286	2285	3	5.184	35.932	-14.355	-26.761	-0.000	0.000
2291	2290	2289	2288	3	12.552	0.000	-12.552	-0.000	-0.000	0.000
2302	2290	2289	2288	3	12.552	0.000	-12.552	-0.000	-0.000	0.000
2327	2326	2315	2314	3	6.322	-2.485	0.707	-4.544	-0.000	0.000
2327	2326	2315	2316	3	0.527	-6.397	-1.695	7.565	-0.000	0.000
2327	2326	2325	2319	3	1.715	2.845	1.046	-5.607	-0.000	0.000
2303	2286	2287	2288	3	1.789	3.492	0.536	-5.816	-0.000	0.000
2290	2289	2288	2287	3	1.715	2.845	1.046	-5.607	-0.000	0.000
2333	2326	2327	2328	3	0.000	0.000	0.000	-0.000	-0.000	0.000
2333	2326	2327	2332	3	0.000	0.000	0.000	-0.000	-0.000	0.000
2333	2326	2315	2314	3	6.322	-2.485	0.707	-4.544	-0.000	0.000
2333	2326	2315	2316	3	0.527	-6.397	-1.695	7.565	-0.000	0.000
2333	2326	2325	2319	3	1.715	2.845	1.046	-5.607	-0.000	0.000
2315	2314	2313	2312	3	21.738	2.408	-16.966	-7.180	-0.000	0.000
2320	2319	2316	2315	3	21.738	2.408	-16.966	-7.180	-0.000	0.000
2320	2319	2316	2317	3	-0.778	-2.335	0.000	3.113	-0.000	0.000
2341	2309	2308	2307	3	58.576	0.000	-58.576	-0.000	-0.000	0.000
2337	2311	2310	2309	3	58.576	0.000	-58.576	-0.000	-0.000	0.000
2341	2309	2310	2311	3	58.576	0.000	-58.576	-0.000	-0.000	0.000
2337	2311	2312	2313	3	58.576	0.000	-58.576	-0.000	-0.000	0.000
2326	2315	2314	2313	3	-0.778	-2.335	0.000	3.113	-0.000	0.000
2326	2315	2316	2319	3	58.576	0.000	-58.576	-0.000	-0.000	0.000
2326	2315	2316	2317	3	58.576	0.000	-58.576	-0.000	-0.000	0.000
2338	2341	2309	2308	3	0.527	-6.397	-1.695	7.565	-0.000	0.000
2338	2337	2311	2312	3	0.527	-6.397	-1.695	7.565	-0.000	0.000
2338	2337	2311	2310	3	0.527	-6.397	-1.695	7.565	-0.000	0.000
2338	2341	2309	2310	3	0.527	-6.397	-1.695	7.565	-0.000	0.000
2341	2338	2337	2311	3	2.301	-1.464	0.837	-1.674	-0.000	0.000
2340	2338	2341	2309	3	2.301	-1.464	0.837	-1.674	-0.000	0.000
2337	2338	2341	2309	3	2.301	-1.464	0.837	-1.674	-0.000	0.000
2339	2338	2341	2309	3	2.301	-1.464	0.837	-1.674	-0.000	0.000
2340	2338	2337	2311	3	2.301	-1.464	0.837	-1.674	-0.000	0.000
2339	2338	2337	2311	3	2.301	-1.464	0.837	-1.674	-0.000	0.000
2288	2287	2286	2285	3	1.789	3.492	0.536	-5.816	-0.000	0.000
2326	2325	2319	2316	3	30.334	0.000	-30.334	-0.000	-0.000	0.000
2326	2325	2319	2320	3	30.334	0.000	-30.334	-0.000	-0.000	0.000
2319	2316	2315	2314	3	58.576	0.000	-58.576	-0.000	-0.000	0.000
2319	2325	2326	2315	3	1.715	2.845	1.046	-5.607	-0.000	0.000
2317	2316	2315	2314	3	58.576	0.000	-58.576	-0.000	-0.000	0.000
2321	2320	2319	2316	3	58.576	0.000	-58.576	-0.000	-0.000	0.000
2323	2320	2319	2316	3	58.576	0.000	-58.576	-0.000	-0.000	0.000
2334	2333	2326	2327	3	0.000	0.000	0.000	-0.000	-0.000	0.000
2335	2333	2326	2327	3	0.000	0.000	0.000	-0.000	-0.000	0.000
2336	2333	2326	2327	3	0.000	0.000	0.000	-0.000	-0.000	0.000
2335	2333	2326	2315	3	0.000	0.000	0.000	-0.000	-0.000	0.000
2334	2333	2326	2315	3	0.000	0.000	0.000	-0.000	-0.000	0.000
2336	2333	2326	2315	3	0.000	0.000	0.000	-0.000	-0.000	0.000
2335	2333	2326	2325	3	1.130	3.389	0.000	-4.519	-0.000	0.000
2336	2333	2326	2325	3	1.130	3.389	0.000	-4.519	-0.000	0.000
2334	2333	2326	2325	3	1.130	3.389	0.000	-4.519	-0.000	0.000
2364	2310	2309	2308	3	58.576	0.000	-58.576	-0.000	-0.000	0.000
2364	2310	2311	2312	3	58.576	0.000	-58.576	-0.000	-0.000	0.000
2364	2310	2311	2337	3	58.576	0.000	-58.576	-0.000	-0.000	0.000
2364	2310	2309	2341	3	58.576	0.000	-58.576	-0.000	-0.000	0.000
2353	2295	2294	2293	3	30.334	0.000	-30.334	-0.000	-0.000	0.000
2352	2292	2293	2294	3	30.334	0.000	-30.334	-0.000	-0.000	0.000
2358	2301	2293	2294	3	30.334	0.000	-30.334	-0.000	-0.000	0.000
2357	2300	2294	2293	3	30.334	0.000	-30.334	-0.000	-0.000	0.000
2357	2300	2294	2295	3	30.334	0.000	-30.334	-0.000	-0.000	0.000
2353	2295	2294	2300	3	30.334	0.000	-30.334	-0.000	-0.000	0.000
2352	2292	2293	2301	3	30.334	0.000	-30.334	-0.000	-0.000	0.000
2358	2301	2293	2292	3	30.334	0.000	-30.334	-0.000	-0.000	0.000
2351	2291	2292	2293	3	30.334	0.000	-30.334	-0.000	-0.000	0.000
2359	2302	2301	2293	3	30.334	0.000	-30.334	-0.000	-0.000	0.000
2354	2296	2295	2294	3	30.334	0.000	-30.334	-0.000	-0.000	0.000
2356	2299	2300	2294	3	30.334	0.000	-30.334	-0.000	-0.000	0.000
2361	2305	2306	2307	3	30.334	0.000	-30.334	-0.000	-0.000	0.000
2383	2342	2306	2307	3	30.334	0.000	-30.334	-0.000	-0.000	0.000
2368	2328	2329	2330	3	30.334	0.000	-30.334	-0.000	-0.000	0.000
2356	2299	2297	2296	3	30.334	0.000	-30.334	-0.000	-0.000	0.000
2371	2331	2330	2329	3	30.334	0.000	-30.334	-0.000	-0.000	0.000
2383	2342	2343	2303	3	30.334	0.000	-30.334	-0.000	-0.000	0.000
2369	2329	2328	2327	3	30.334	0.000	-30.334	-0.000	-0.000	0.000
2384	2343	2342	2306	3	30.334	0.000	-30.334	-0.000	-0.000	0.000
2370	2330	2329	2328	3	30.334	0.000	-30.334	-0.000	-0.000	0.000
2359	2302	2290	2291	3	30.334	0.000	-30.334	-0.000	-0.000	0.000
2358	2301	2302	2290	3	30.334	0.000	-30.334	-0.000	-0.000	0.000
2383	2342	2306	2305	3	30.334	0.000	-30.334	-0.000	-0.000	0.000
2384	2343	2303	2304	3	30.334	0.000	-30.334	-0.000	-0.000	0.000
2371	2331	2332	2327	3	30.334	0.000	-30.334	-0.000	-0.000	0.000
2368	2328	2327	2332	3	30.334	0.000	-30.334	-0.000	-0.000	0.000
2353	2295	2296	2297	3	30.334	0.000	-30.334	-0.000	-0.000	0.000
2354	2296	2297	2299	3	30.334	0.000	-30.334	-0.000	-0.000	0.000
2351	2291	2290	2302	3	30.334	0.000	-30.334	-0.000	-0.000	0.000
2360	2304	2303	2343	3	30.334	0.000	-30.334	-0.000	-0.000	0.000
2360	2304	2305	2306	3	30.334	0.000	-30.334	-0.000	-0.000	0.000
2357	2300	2299	2297	3	30.334	0.000	-30.334	-0.000	-0.000	0.000
2361	2305	2306	2342	3	30.334	0.000	-30.334	-0.000	-0.000	0.000
2370	2330	2331	2332	3	30.334	0.000	-30.334	-0.000	-0.000	0.000
2372	2332	2331	2330	3	30.334	0.000	-30.334	-0.000	-0.000	0.000
2369	2329	2330	2331	3	30.334	0.000	-30.334	-0.000	-0.000	0.000
2372	2332	2327	2328	3	30.334	0.000	-30.334	-0.000	-0.000	0.000
2352	2292	2291	2290	3	30.334	0.000	-30.334	-0.000	-0.000	0.000
2361	2305	2304	2303	3	30.334	0.000	-30.334	-0.000	-0.000	0.000
2372	2332	2327	2326	3	30.334	0.000	-30.334	-0.000	-0.000	0.000
2368	2328	2327	2326	3	30.334	0.000	-30.334	-0.000	-0.000	0.000
2361	2305	2304	2360	3	30.334	0.000	-30.334	-0.000	-0.000	0.000
2384	2343	2342	2383	3	30.334	0.000	-30.334	-0.000	-0.000	0.000
2370	2330	2329	2369	3	30.334	0.000	-30.334	-0.000	-0.000	0.000
2354	2296	2295	2353	3	30.334	0.000	-30.334	-0.000	-0.000	0.000
2359	2302	2301	2358	3	30.334	0.000	-30.334	-0.000	-0.000	0.000
2357	2300	2299	2356	3	30.334	0.000	-30.334	-0.000	-0.000	0.000
2369	2329	2328	2368	3	30.334	0.000	-30.334	-0.000	-0.000	0.000
2352	2292	2291	2351	3	30.334	0.000	-30.334	-0.000	-0.000	0.000
2371	2331	2330	2370	3	30.334	0.000	-30.334	-0.000	-0.000	0.000
2372	2332	2331	2371	3	30.334	0.000	-30.334	-0.000	-0.000	0.000
2384	2343	2303	2286	3	30.334	0.000	-30.334	-0.000	-0.000	0.000
2360	2304	2303	2286	3	30.334	0.000	-30.334	-0.000	-0.000	0.000
2354	2296	2297	2298	3	0.0	0.0	0.0	-0.0	-0.0	0.0
2356	2299	2297	2298	3	0.0	0.0	0.0	-0.0	-0.0	0.0
2351	2291	2290	2289	3	30.334	0.000	-30.334	-0.000	-0.000	0.000
2359	2302	2290	2289	3	30.334	0.000	-30.334	-0.000	-0.000	0.000
2365	2312	2311	2310	3	58.576	0.000	-58.576	-0.000	-0.000	0.000
2365	2312	2313	2314	3	58.576	0.000	-58.576	-0.000	-0.000	0.000
2367	2314	2313	2312	3	58.576	0.000	-58.576	-0.000	-0.000	0.000
2366	2313	2312	2311	3	58.576	0.000	-58.576	-0.000	-0.000	0.000
2363	2308	2309	2310	3	58.576	0.000	-58.576	-0.000	-0.000	0.000
2362	2307	2308	2309	3	58.576	0.000	-58.576	-0.000	-0.000	0.000
2363	2308	2307	2306	3	58.576	0.000	-58.576	-0.000	-0.000	0.000
2366	2313	2314	2315	3	58.576	0.000	-58.576	-0.000	-0.000	0.000
2365	2312	2311	2337	3	58.576	0.000	-58.576	-0.000	-0.000	0.000
2363	2308	2309	2341	3	58.576	0.000	-58.576	-0.000	-0.000	0.000
2363	2308	2307	2362	3	58.576	0.000	-58.576	-0.000	-0.000	0.000
2366	2313	2312	2365	3	58.576	0.000	-58.576	-0.000	-0.000	0.000
2367	2314	2313	2366	3	58.576	0.000	-58.576	-0.000	-0.000	0.000
2362	2307	2306	2342	3	-0.778	-2.335	0.000	3.113	-0.000	0.000
2362	2307	2306	2305	3	-0.778	-2.335	0.000	3.113	-0.000	0.000
2367	2314	2315	2316	3	58.576	0.000	-58.576	-0.000	-0.000	0.000
2367	2314	2315	2326	3	58.576	0.000	-58.576	-0.000	-0.000	0.000
2381	2341	2309	2308	3	-0.778	-2.335	0.000	3.113	-0.000	0.000
2381	2341	2309	2310	3	-0.778	-2.335	0.000	3.113	-0.000	0.000
2382	2341	2309	2308	3	-0.778	-2.335	0.000	3.113	-0.000	0.000
2374	2337	2311	2312	3	-0.778	-2.335	0.000	3.113	-0.000	0.000
2382	2341	2309	2310	3	-0.778	-2.335	0.000	3.113	-0.000	0.000
2373	2337	2311	2310	3	-0.778	-2.335	0.000	3.113	-0.000	0.000
2374	2337	2311	2310	3	-0.778	-2.335	0.000	3.113	-0.000	0.000
2373	2337	2311	2312	3	-0.778	-2.335	0.000	3.113	-0.000	0.000
2376	2339	2338	2341	3	0.628	1.883	0.000	-2.510	-0.000	0.000
2375	2339	2338	2340	3	0.628	1.883	0.000	-2.510	-0.000	0.000
2375	2339	2338	2337	3	0.628	1.883	0.000	-2.510	-0.000	0.000
2377	2339	2338	2340	3	0.628	1.883	0.000	-2.510	-0.000	0.000
2379	2340	2338	2337	3	0.628	1.883	0.000	-2.510	-0.000	0.000
2378	2340	2338	2337	3	0.628	1.883	0.000	-2.510	-0.000	0.000
2377	2339	2338	2337	3	0.628	1.883	0.000	-2.510	-0.000	0.000
2379	2340	2338	2339	3	0.628	1.883	0.000	-2.510	-0.000	0.000
2376	2339	2338	2337	3	0.628	1.883	0.000	-2.510	-0.000	0.000
2381	2341	2338	2337	3	0.628	1.883	0.000	-2.510	-0.000	0.000
2381	2341	2338	2339	3	0.628	1.883	0.000	-2.510	-0.000	0.000
2374	2337	2338	2339	3	0.628	1.883	0.000	-2.510	-0.000	0.000
2377	2339	2338	2341	3	0.628	1.883	0.000	-2.510	-0.000	0.000
2374	2337	2338	2340	3	0.628	1.883	0.000	-2.510	-0.000	0.000
2382	2341	2338	2339	3	0.628	1.883	0.000	-2.510	-0.000	0.000
2378	2340	2338	2341	3	0.628	1.883	0.000	-2.510	-0.000	0.000
2379	2340	2338	2341	3	0.628	1.883	0.000	-2.510	-0.000	0.000
2380	2340	2338	2337	3	0.628	1.883	0.000	-2.510	-0.000	0.000
2373	2337	2338	2340	3	0.628	1.883	0.000	-2.510	-0.000	0.000
2373	2337	2338	2339	3	0.628	1.883	0.000	-2.510	-0.000	0.000
2378	2340	2338	2339	3	0.628	1.883	0.000	-2.510	-0.000	0.000
2374	2337	2338	2341	3	0.628	1.883	0.000	-2.510	-0.000	0.000
2382	2341	2338	2340	3	0.628	1.883	0.000	-2.510	-0.000	0.000
2376	2339	2338	2340	3	0.628	1.883	0.000	-2.510	-0.000	0.000
2375	2339	2338	2341	3	0.628	1.883	0.000	-2.510	-0.000	0.000
2382	2341	2338	2337	3	0.628	1.883	0.000	-2.510	-0.000	0.000
2373	2337	2338	2341	3	0.628	1.883	0.000	-2.510	-0.000	0.000
2380	2340	2338	2339	3	0.628	1.883	0.000	-2.510	-0.000	0.000
2381	2341	2338	2340	3	0.628	1.883	0.000	-2.510	-0.000	0.000
2380	2340	2338	2341	3	0.628	1.883	0.000	-2.510	-0.000	0.000
2349	2288	2287	2348	3	0.628	1.883	0.000	-2.510	-0.000	0.000
2350	2288	2287	2347	3	0.628	1.883	0.000	-2.510	-0.000	0.000
2349	2288	2287	2347	3	0.628	1.883	0.000	-2.510	-0.000	0.000
2350	2288	2287	2348	3	0.628	1.883	0.000	-2.510	-0.000	0.000
2350	2288	2287	2286	3	-4.096	5.088	2.966	-3.958	-0.000	0.000
2349	2288	2287	2286	3	-4.096	5.088	2.966	-3.958	-0.000	0.000
2348	2287	2288	2289	3	0.979	2.937	0.000	-3.916	-0.000	0.000
2347	2287	2288	2289	3	0.979	2.937	0.000	-3.916	-0.000	0.000
2348	2287	2286	2303	3	1.172	3.515	0.000	-4.686	-0.000	0.000
2344	2285	2286	2303	3	1.172	3.515	0.000	-4.686	-0.000	0.000
2347	2287	2286	2303	3	1.172	3.515	0.000	-4.686	-0.000	0.000
2345	2285	2286	2303	3	1.172	3.515	0.000	-4.686	-0.000	0.000
2346	2285	2286	2303	3	1.172	3.515	0.000	-4.686	-0.000	0.000
2347	2287	2286	2285	3	1.172	3.515	0.000	-4.686	-0.000	0.000
2345	2285	2286	2287	3	1.172	3.515	0.000	-4.686	-0.000	0.000
2348	2287	2286	2285	3	1.172	3.515	0.000	-4.686	-0.000	0.000
2346	2285	2286	2287	3	1.172	3.515	0.000	-4.686	-0.000	0.000
2344	2285	2286	2287	3	1.172	3.515	0.000	-4.686	-0.000	0.000
2349	2288	2289	2290	3	1.590	4.770	0.000	-6.360	-0.000	0.000
2350	2288	2289	2290	3	1.590	4.770	0.000	-6.360	-0.000	0.000
2355	2298	2297	2299	3	0.0	0.0	0.0	-0.0	-0.0	0.0
2355	2298	2297	2296	3	0.0	0.0	0.0	-0.0	-0.0	0.0
2298	2297	2296	2295	3	0.0	0.0	0.0	-0.0	-0.0	0.0
2325	2326	2315	2314	3	2.874	0.582	2.092	-5.548	-0.000	0.000
2325	2326	2315	2316	3	1.046	-1.046	0.000	-0.000	-0.000	0.000
2289	2288	2287	2286	3	16.736	-16.736	0.000	-0.000	-0.000	0.000
2325	2319	2316	2315	3	1.046	-1.046	0.000	-0.000	-0.000	0.000
2325	2319	2316	2317	3	9.079	0.000	-9.079	-0.000	-0.000	0.000
2394	2393	2392	2391	3	30.334	0.000	-30.334	-0.000	-0.000	0.000
2393	2401	2402	2390	3	30.334	0.000	-30.334	-0.000	-0.000	0.000
2393	2392	2391	2390	3	30.334	0.000	-30.334	-0.000	-0.000	0.000
2414	2413	2412	2411	3	21.738	2.408	-16.966	-7.180	-0.000	0.000
2410	2409	2408	2407	3	21.738	2.408	-16.966	-7.180	-0.000	0.000
2411	2410	2409	2408	3	21.738	2.408	-16.966	-7.180	-0.000	0.000
2412	2411	2410	2409	3	21.738	2.408	-16.966	-7.180	-0.000	0.000
2413	2412	2411	2410	3	21.738	2.408	-16.966	-7.180	-0.000	0.000
2409	2408	2407	2406	3	58.576	0.000	-58.576	-0.000	-0.000	0.000
2408	2407	2406	2405	3	16.027	-4.391	-14.029	2.393	-0.000	0.000
2407	2406	2405	2404	3	30.334	0.000	-30.334	-0.000	-0.000	0.000
2416	2415	2414	2413	3	58.576	0.000	-58.576	-0.000	-0.000	0.000
2401	2393	2394	2400	3	9.079	0.000	-9.079	-0.000	-0.000	0.000
2400	2394	2393	2392	3	9.079	0.000	-9.079	-0.000	-0.000	0.000
2401	2393	2394	2395	3	9.079	0.000	-9.079	-0.000	-0.000	0.000
2395	2394	2393	2392	3	9.079	0.000	-9.079	-0.000	-0.000	0.000
2400	2394	2395	2396	3	30.334	0.000	-30.334	-0.000	-0.000	0.000
2401	2393	2392	2391	3	30.334	0.000	-30.334	-0.000	-0.000	0.000
2399	2400	2394	2393	3	30.334	0.000	-30.334	-0.000	-0.000	0.000
2402	2401	2393	2394	3	30.334	0.000	-30.334	-0.000	-0.000	0.000
2396	2395	2394	2393	3	30.334	0.000	-30.334	-0.000	-0.000	0.000
2399	2400	2394	2395	3	30.334	0.000	-30.334	-0.000	-0.000	0.000
2402	2401	2393	2392	3	30.334	0.000	-30.334	-0.000	-0.000	0.000
2442	2406	2407	2408	3	16.027	-4.391	-14.029	2.393	-0.000	0.000
2397	2399	2400	2394	3	30.334	0.000	-30.334	-0.000	-0.000	0.000
2397	2396	2395	2394	3	30.334	0.000	-30.334	-0.000	-0.000	0.000
2443	2442	2406	2407	3	30.334	0.000	-30.334	-0.000	-0.000	0.000
2432	2427	2428	2429	3	30.334	0.000	-30.334	-0.000	-0.000	0.000
2443	2442	2406	2405	3	30.334	0.000	-30.334	-0.000	-0.000	0.000
2402	2390	2391	2392	3	30.334	0.000	-30.334	-0.000	-0.000	0.000
2442	2443	2403	2404	3	30.334	0.000	-30.334	-0.000	-0.000	0.000
2432	2431	2430	2429	3	30.334	0.000	-30.334	-0.000	-0.000	0.000
2431	2430	2429	2428	3	30.334	0.000	-30.334	-0.000	-0.000	0.000
2430	2429	2428	2427	3	30.334	0.000	-30.334	-0.000	-0.000	0.000
2406	2405	2404	2403	3	30.334	0.000	-30.334	-0.000	-0.000	0.000
2406	2442	2443	2403	3	30.334	0.000	-30.334	-0.000	-0.000	0.000
2443	2403	2404	2405	3	30.334	0.000	-30.334	-0.000	-0.000	0.000
2442	2406	2405	2404	3	30.334	0.000	-30.334	-0.000	-0.000	0.000
2431	2432	2427	2428	3	30.334	0.000	-30.334	-0.000	-0.000	0.000
2400	2399	2397	2396	3	30.334	0.000	-30.334	-0.000	-0.000	0.000
2401	2402	2390	2391	3	30.334	0.000	-30.334	-0.000	-0.000	0.000
2430	2431	2432	2427	3	30.334	0.000	-30.334	-0.000	-0.000	0.000
2399	2397	2396	2395	3	30.334	0.000	-30.334	-0.000	-0.000	0.000
2431	2432	2427	2426	3	30.334	0.000	-30.334	-0.000	-0.000	0.000
2429	2428	2427	2426	3	30.334	0.000	-30.334	-0.000	-0.000	0.000
2442	2443	2403	2386	3	30.334	0.000	-30.334	-0.000	-0.000	0.000
2405	2404	2403	2386	3	30.334	0.000	-30.334	-0.000	-0.000	0.000
2400	2399	2397	2398	3	0.0	0.0	0.0	-0.0	-0.0	0.0
2392	2391	2390	2389	3	30.334	0.000	-30.334	-0.000	-0.000	0.000
2401	2402	2390	2389	3	30.334	0.000	-30.334	-0.000	-0.000	0.000
2432	2427	2426	2415	3	0.000	0.000	0.000	-0.000	-0.000	0.000
2428	2427	2426	2415	3	0.000	0.000	0.000	-0.000	-0.000	0.000
2432	2427	2426	2425	3	0.000	0.000	0.000	-0.000	-0.000	0.000
2428	2427	2426	2425	3	0.000	0.000	0.000	-0.000	-0.000	0.000
2443	2403	2386	2387	3	5.184	35.932	-14.355	-26.761	-0.000	0.000
2404	2403	2386	2387	3	5.184	35.932	-14.355	-26.761	-0.000	0.000
2404	2403	2386	2385	3	5.184	35.932	-14.355	-26.761	-0.000	0.000
2443	2403	2386	2385	3	5.184	35.932	-14.355	-26.761	-0.000	0.000
2391	2390	2389	2388	3	12.552	0.000	-12.552	-0.000	-0.000	0.000
2402	2390	2389	2388	3	12.552	0.000	-12.552	-0.000	-0.000	0.000
2427	2426	2415	2414	3	6.322	-2.485	0.707	-4.544	-0.000	0.000
2427	2426	2415	2416	3	0.527	-6.397	-1.695	7.565	-0.000	0.000
2427	2426	2425	2419	3	1.715	2.845	1.046	-5.607	-0.000	0.000
2403	2386	2387	2388	3	1.789	3.492	0.536	-5.816	-0.000	0.000
2390	2389	2388	2387	3	1.715	2.845	1.046	-5.607	-0.000	0.000
2433	2426	2427	2428	3	0.000	0.000	0.000	-0.000	-0.000	0.000
2433	2426	2427	2432	3	0.000	0.000	0.000	-0.000	-0.000	0.000
2433	2426	2415	2414	3	6.322	-2.485	0.707	-4.544	-0.000	0.000
2433	2426	2415	2416	3	0.527	-6.397	-1.695	7.565	-0.000	0.000
2433	2426	2425	2419	3	1.715	2.845	1.046	-5.607	-0.000	0.000
2415	2414	2413	2412	3	21.738	2.408	-16.966	-7.180	-0.000	0.000
2420	2419	2416	2415	3	21.738	2.408	-16.966	-7.180	-0.000	0.000
2420	2419	2416	2417	3	-0.778	-2.335	0.000	3.113	-0.000	0.000
2441	2409	2408	2407	3	58.576	0.000	-58.576	-0.000	-0.000	0.000
2437	2411	2410	2409	3	58.576	0.000	-58.576	-0.000	-0.000	0.000
2441	2409	2410	2411	3	58.576	0.000	-58.576	-0.000	-0.000	0.000
2437	2411	2412	2413	3	58.576	0.000	-58.576	-0.000	-0.000	0.000
2426	2415	2414	2413	3	-0.778	-2.335	0.000	3.113	-0.000	0.000
2426	2415	2416	2419	3	58.576	0.000	-58.576	-0.000	-0.000	0.000
2426	2415	2416	2417	3	58.576	0.000	-58.576	-0.000	-0.000	0.000
2438	2441	2409	2408	3	0.527	-6.397	-1.695	7.565	-0.000	0.000
2438	2437	2411	2412	3	0.527	-6.397	-1.695	7.565	-0.000	0.000
2438	2437	2411	2410	3	0.527	-6.397	-1.695	7.565	-0.000	0.000
2438	2441	2409	2410	3	0.527	-6.397	-1.695	7.565	-0.000	0.000
2441	2438	2437	2411	3	2.301	-1.464	0.837	-1.674	-0.000	0.000
2440	2438	2441	2409	3	2.301	-1.464	0.837	-1.674	-0.000	0.000
2437	2438	2441	2409	3	2.301	-1.464	0.837	-1.674	-0.000	0.000
2439	2438	2441	2409	3	2.301	-1.464	0.837	-1.674	-0.000	0.000
2440	2438	2437	2411	3	2.301	-1.464	0.837	-1.674	-0.000	0.000
2439	2438	2437	2411	3	2.301	-1.464	0.837	-1.674	-0.000	0.000
2388	2387	2386	2385	3	1.789	3.492	0.536	-5.816	-0.000	0.000
2426	2425	2419	2416	3	30.334	0.000	-30.334	-0.000	-0.000	0.000
2426	2425	2419	2420	3	30.334	0.000	-30.334	-0.000	-0.000	0.000
2419	2416	2415	2414	3	58.576	0.000	-58.576	-0.000	-0.000	0.000
2419	2425	2426	2415	3	1.715	2.845	1.046	-5.607	-0.000	0.000
2417	2416	2415	2414	3	58.576	0.000	-58.576	-0.000	-0.000	0.000
2421	2420	2419	2416	3	58.576	0.000	-58.576	-0.000	-0.000	0.000
2423	2420	2419	2416	3	58.576	0.000	-58.576	-0.000	-0.000	0.000
2434	2433	2426	2427	3	0.000	0.000	0.000	-0.000	-0.000	0.000
2435	2433	2426	2427	3	0.000	0.000	0.000	-0.000	-0.000	0.000
2436	2433	2426	2427	3	0.000	0.000	0.000	-0.000	-0.000	0.000
2435	2433	2426	2415	3	0.000	0.000	0.000	-0.000	-0.000	0.000
2434	2433	2426	2415	3	0.000	0.000	0.000	-0.000	-0.000	0.000
2436	2433	2426	2415	3	0.000	0.000	0.000	-0.000	-0.000	0.000
2435	2433	2426	2425	3	1.130	3.389	0.000	-4.519	-0.000	0.000
2436	2433	2426	2425	3	1.130	3.389	0.000	-4.519	-0.000	0.000
2434	2433	2426	2425	3	1.130	3.389	0.000	-4.519	-0.000	0.000
2464	2410	2409	2408	3	58.576	0.000	-58.576	-0.000	-0.000	0.000
2464	2410	2411	2412	3	58.576	0.000	-58.576	-0.000	-0.000	0.000
2464	2410	2411	2437	3	58.576	0.000	-58.576	-0.000	-0.000	0.000
2464	2410	2409	2441	3	58.576	0.000	-58.576	-0.000	-0.000	0.000
2453	2395	2394	2393	3	30.334	0.000	-30.334	-0.000	-0.000	0.000
2452	2392	2393	2394	3	30.334	0.000	-30.334	-0.000	-0.000	0.000
2458	2401	2393	2394	3	30.334	0.000	-30.334	-0.000	-0.000	0.000
2457	2400	2394	2393	3	30.334	0.000	-30.334	-0.000	-0.000	0.000
2457	2400	2394	2395	3	30.334	0.000	-30.334	-0.000	-0.000	0.000
2453	2395	2394	2400	3	30.334	0.000	-30.334	-0.000	-0.000	0.000
2452	2392	2393	2401	3	30.334	0.000	-30.334	-0.000	-0.000	0.000
2458	2401	2393	2392	3	30.334	0.000	-30.334	-0.000	-0.000	0.000
2451	2391	2392	2393	3	30.334	0.000	-30.334	-0.000	-0.000	0.000
2459	2402	2401	2393	3	30.334	0.000	-30.334	-0.000	-0.000	0.000
2454	2396	2395	2394	3	30.334	0.000	-30.334	-0.000	-0.000	0.000
2456	2399	2400	2394	3	30.334	0.000	-30.334	-0.000	-0.000	0.000
2461	2405	2406	2407	3	30.334	0.000	-30.334	-0.000	-0.000	0.000
2483	2442	2406	2407	3	30.334	0.000	-30.334	-0.000	-0.000	0.000
2468	2428	2429	2430	3	30.334	0.000	-30.334	-0.000	-0.000	0.000
2456	2399	2397	2396	3	30.334	0.000	-30.334	-0.000	-0.000	0.000
2471	2431	2430	2429	3	30.334	0.000	-30.334	-0.000	-0.000	0.000
2483	2442	2443	2403	3	30.334	0.000	-30.334	-0.000	-0.000	0.000
2469	2429	2428	2427	3	30.334	0.000	-30.334	-0.000	-0.000	0.000
2484	2443	2442	2406	3	30.334	0.000	-30.334	-0.000	-0.000	0.000
2470	2430	2429	2428	3	30.334	0.000	-30.334	-0.000	-0.000	0.000
2459	2402	2390	2391	3	30.334	0.000	-30.334	-0.000	-0.000	0.000
2458	2401	2402	2390	3	30.334	0.000	-30.334	-0.000	-0.000	0.000
2483	2442	2406	2405	3	30.334	0.000	-30.334	-0.000	-0.000	0.000
2484	2443	2403	2404	3	30.334	0.000	-30.334	-0.000	-0.000	0.000
2471	2431	2432	2427	3	30.334	0.000	-30.334	-0.000	-0.000	0.000
2468	2428	2427	2432	3	30.334	0.000	-30.334	-0.000	-0.000	0.000
2453	2395	2396	2397	3	30.334	0.000	-30.334	-0.000	-0.000	0.000
2454	2396	2397	2399	3	30.334	0.000	-30.334	-0.000	-0.000	0.000
2451	2391	2390	2402	3	30.334	0.000	-30.334	-0.000	-0.000	0.000
2460	2404	2403	2443	3	30.334	0.000	-30.334	-0.000	-0.000	0.000
2460	2404	2405	2406	3	30.334	0.000	-30.334	-0.000	-0.000	0.000
2457	2400	2399	2397	3	30.334	0.000	-30.334	-0.000	-0.000	0.000
2461	2405	2406	2442	3	30.334	0.000	-30.334	-0.000	-0.000	0.000
2470	2430	2431	2432	3	30.334	0.000	-30.334	-0.000	-0.000	0.000
2472	2432	2431	2430	3	30.334	0.000	-30.334	-0.000	-0.000	0.000
2469	2429	2430	2431	3	30.334	0.000	-30.334	-0.000	-0.000	0.000
2472	2432	2427	2428	3	30.334	0.000	-30.334	-0.000	-0.000	0.000
2452	2392	2391	2390	3	30.334	0.000	-30.334	-0.000	-0.000	0.000
2461	2405	2404	2403	3	30.334	0.000	-30.334	-0.000	-0.000	0.000
2472	2432	2427	2426	3	30.334	0.000	-30.334	-0.000	-0.000	0.000
2468	2428	2427	2426	3	30.334	0.000	-30.334	-0.000	-0.000	0.000
2461	2405	2404	2460	3	30.334	0.000	-30.334	-0.000	-0.000	0.000
2484	2443	2442	2483	3	30.334	0.000	-30.334	-0.000	-0.000	0.000
2470	2430	2429	2469	3	30.334	0.000	-30.334	-0.000	-0.000	0.000
2454	2396	2395	2453	3	30.334	0.000	-30.334	-0.000	-0.000	0.000
2459	2402	2401	2458	3	30.334	0.000	-30.334	-0.000	-0.000	0.000
2457	2400	2399	2456	3	30.334	0.000	-30.334	-0.000	-0.000	0.000
2469	2429	2428	2468	3	30.334	0.000	-30.334	-0.000	-0.000	0.000
2452	2392	2391	2451	3	30.334	0.000	-30.334	-0.000	-0.000	0.000
2471	2431	2430	2470	3	30.334	0.000	-30.334	-0.000	-0.000	0.000
2472	2432	2431	2471	3	30.334	0.000	-30.334	-0.000	-0.000	0.000
2484	2443	2403	2386	3	30.334	0.000	-30.334	-0.000	-0.000	0.000
2460	2404	2403	2386	3	30.334	0.000	-30.334	-0.000	-0.000	0.000
2454	2396	2397	2398	3	0.0	0.0	0.0	-0.0	-0.0	0.0
2456	2399	2397	2398	3	0.0	0.0	0.0	-0.0	-0.0	0.0
2451	2391	2390	2389	3	30.334	0.000	-30.334	-0.000	-0.000	0.000
2459	2402	2390	2389	3	30.334	0.000	-30.334	-0.000	-0.000	0.000
2465	2412	2411	2410	3	58.576	0.000	-58.576	-0.000	-0.000	0.000
2465	2412	2413	2414	3	58.576	0.000	-58.576	-0.000	-0.000	0.000
2467	2414	2413	2412	3	58.576	0.000	-58.576	-0.000	-0.000	0.000
2466	2413	2412	2411	3	58.576	0.000	-58.576	-0.000	-0.000	0.000
2463	2408	2409	2410	3	58.576	0.000	-58.576	-0.000	-0.000	0.000
2462	2407	2408	2409	3	58.576	0.000	-58.576	-0.000	-0.000	0.000
2463	2408	2407	2406	3	58.576	0.000	-58.576	-0.000	-0.000	0.000
2466	2413	2414	2415	3	58.576	0.000	-58.576	-0.000	-0.000	0.000
2465	2412	2411	2437	3	58.576	0.000	-58.576	-0.000	-0.000	0.000
2463	2408	2409	2441	3	58.576	0.000	-58.576	-0.000	-0.000	0.000
2463	2408	2407	2462	3	58.576	0.000	-58.576	-0.000	-0.000	0.000
2466	2413	2412	2465	3	58.576	0.000	-58.576	-0.000	-0.000	0.000
2467	2414	2413	2466	3	58.576	0.000	-58.576	-0.000	-0.000	0.000
2462	2407	2406	2442	3	-0.778	-2.335	0.000	3.113	-0.000	0.000
2462	2407	2406	2405	3	-0.778	-2.335	0.000	3.113	-0.000	0.000
2467	2414	2415	2416	3	58.576	0.000	-58.576	-0.000	-0.000	0.000
2467	2414	2415	2426	3	58.576	0.000	-58.576	-0.000	-0.000	0.000
2481	2441	2409	2408	3	-0.778	-2.335	0.000	3.113	-0.000	0.000
2481	2441	2409	2410	3	-0.778	-2.335	0.000	3.113	-0.000	0.000
2482	2441	2409	2408	3	-0.778	-2.335	0.000	3.113	-0.000	0.000
2474	2437	2411	2412	3	-0.778	-2.335	0.000	3.113	-0.000	0.000
2482	2441	2409	2410	3	-0.778	-2.335	0.000	3.113	-0.000	0.000
2473	2437	2411	2410	3	-0.778	-2.335	0.000	3.113	-0.000	0.000
2474	2437	2411	2410	3	-0.778	-2.335	0.000	3.113	-0.000	0.000
2473	2437	2411	2412	3	-0.778	-2.335	0.000	3.113	-0.000	0.000
2476	2439	2438	2441	3	0.628	1.883	0.000	-2.510	-0.000	0.000
2475	2439	2438	2440	3	0.628	1.883	0.000	-2.510	-0.000	0.000
2475	2439	2438	2437	3	0.628	1.883	0.000	-2.510	-0.000	0.000
2477	2439	2438	2440	3	0.628	1.883	0.000	-2.510	-0.000	0.000
2479	2440	2438	2437	3	0.628	1.883	0.000	-2.510	-0.000	0.000
2478	2440	2438	2437	3	0.628	1.883	0.000	-2.510	-0.000	0.000
2477	2439	2438	2437	3	0.628	1.883	0.000	-2.510	-0.000	0.000
2479	2440	2438	2439	3	0.628	1.883	0.000	-2.510	-0.000	0.000
2476	2439	2438	2437	3	0.628	1.883	0.000	-2.510	-0.000	0.000
2481	2441	2438	2437	3	0.628	1.883	0.000	-2.510	-0.000	0.000
2481	2441	2438	2439	3	0.628	1.883	0.000	-2.510	-0.000	0.000
2474	2437	2438	2439	3	0.628	1.883	0.000	-2.510	-0.000	0.000
2477	2439	2438	2441	3	0.628	1.883	0.000	-2.510	-0.000	0.000
2474	2437	2438	2440	3	0.628	1.883	0.000	-2.510	-0.000	0.000
2482	2441	2438	2439	3	0.628	1.883	0.000	-2.510	-0.000	0.000
2478	2440	2438	2441	3	0.628	1.883	0.000	-2.510	-0.000	0.000
2479	2440	2438	2441	3	0.628	1.883	0.000	-2.510	-0.000	0.000
2480	2440	2438	2437	3	0.628	1.883	0.000	-2.510	-0.000	0.000
2473	2437	2438	2440	3	0.628	1.883	0.000	-2.510	-0.000	0.000
2473	2437	2438	2439	3	0.628	1.883	0.000	-2.510	-0.000	0.000
2478	2440	2438	2439	3	0.628	1.883	0.000	-2.510	-0.000	0.000
2474	2437	2438	2441	3	0.628	1.883	0.000	-2.510	-0.000	0.000
2482	2441	2438	2440	3	0.628	1.883	0.000	-2.510	-0.000	0.000
2476	2439	2438	2440	3	0.628	1.883	0.000	-2.510	-0.000	0.000
2475	2439	2438	2441	3	0.628	1.883	0.000	-2.510	-0.000	0.000
2482	2441	2438	2437	3	0.628	1.883	0.000	-2.510	-0.000	0.000
2473	2437	2438	2441	3	0.628	1.883	0.000	-2.510	-0.000	0.000
2480	2440	2438	2439	3	0.628	1.883	0.000	-2.510	-0.000	0.000
2481	2441	2438	2440	3	0.628	1.883	0.000	-2.510	-0.000	0.000
2480	2440	2438	2441	3	0.628	1.883	0.000	-2.510	-0.000	0.000
2449	2388	2387	2448	3	0.628	1.883	0.000	-2.510	-0.000	0.000
2450	2388	2387	2447	3	0.628	1.883	0.000	-2.510	-0.000	0.000
2449	2388	2387	2447	3	0.628	1.883	0.000	-2.510	-0.000	0.000
2450	2388	2387	2448	3	0.628	1.883	0.000	-2.510	-0.000	0.000
2450	2388	2387	2386	3	-4.096	5.088	2.966	-3.958	-0.000	0.000
2449	2388	2387	2386	3	-4.096	5.088	2.966	-3.958	-0.000	0.000
2448	2387	2388	2389	3	0.979	2.937	0.000	-3.916	-0.000	0.000
2447	2387	2388	2389	3	0.979	2.937	0.000	-3.916	-0.000	0.000
2448	2387	2386	2403	3	1.172	3.515	0.000	-4.686	-0.000	0.000
2444	2385	2386	2403	3	1.172	3.515	0.000	-4.686	-0.000	0.000
2447	2387	2386	2403	3	1.172	3.515	0.000	-4.686	-0.000	0.000
2445	2385	2386	2403	3	1.172	3.515	0.000	-4.686	-0.000	0.000
2446	2385	2386	2403	3	1.172	3.515	0.000	-4.686	-0.000	0.000
2447	2387	2386	2385	3	1.172	3.515	0.000	-4.686	-0.000	0.000
2445	2385	2386	2387	3	1.172	3.515	0.000	-4.686	-0.000	0.000
2448	2387	2386	2385	3	1.172	3.515	0.000	-4.686	-0.000	0.000
2446	2385	2386	2387	3	1.172	3.515	0.000	-4.686	-0.000	0.000
2444	2385	2386	2387	3	1.172	3.515	0.000	-4.686	-0.000	0.000
2449	2388	2389	2390	3	1.590	4.770	0.000	-6.360	-0.000	0.000
2450	2388	2389	2390	3	1.590	4.770	0.000	-6.360	-0.000	0.000
2455	2398	2397	2399	3	0.0	0.0	0.0	-0.0	-0.0	0.0
2455	2398	2397	2396	3	0.0	0.0	0.0	-0.0	-0.0	0.0
2398	2397	2396	2395	3	0.0	0.0	0.0	-0.0	-0.0	0.0
2425	2426	2415	2414	3	2.874	0.582	2.092	-5.548	-0.000	0.000
2425	2426	2415	2416	3	1.046	-1.046	0.000	-0.000	-0.000	0.000
2389	2388	2387	2386	3	16.736	-16.736	0.000	-0.000	-0.000	0.000
2425	2419	2416	2415	3	1.046	-1.046	0.000	-0.000	-0.000	0.000
2425	2419	2416	2417	3	9.079	0.000	-9.079	-0.000	-0.000	0.000
2494	2493	2492	2491	3	30.334	0.000	-30.334	-0.000	-0.000	0.000
2493	2501	2502	2490	3	30.334	0.000	-30.334	-0.000	-0.000	0.000
2493	2492	2491	2490	3	30.334	0.000	-30.334	-0.000	-0.000	0.000
2514	2513	2512	2511	3	21.738	2.408	-16.966	-7.180	-0.000	0.000
2510	2509	2508	2507	3	21.738	2.408	-16.966	-7.180	-0.000	0.000
2511	2510	2509	2508	3	21.738	2.408	-16.966	-7.180	-0.000	0.000
2512	2511	2510	2509	3	21.738	2.408	-16.966	-7.180	-0.000	0.000
2513	2512	2511	2510	3	21.738	2.408	-16.966	-7.180	-0.000	0.000
2509	2508	2507	2506	3	58.576	0.000	-58.576	-0.000	-0.000	0.000
2508	2507	2506	2505	3	16.027	-4.391	-14.029	2.393	-0.000	0.000
2507	2506	2505	2504	3	30.334	0.000	-30.334	-0.000	-0.000	0.000
2516	2515	2514	2513	3	58.576	0.000	-58.576	-0.000	-0.000	0.000
2501	2493	2494	2500	3	9.079	0.000	-9.079	-0.000	-0.000	0.000
2500	2494	2493	2492	3	9.079	0.000	-9.079	-0.000	-0.000	0.000
2501	2493	2494	2495	3	9.079	0.000	-9.079	-0.000	-0.000	0.000
2495	2494	2493	2492	3	9.079	0.000	-9.079	-0.000	-0.000	0.000
2500	2494	2495	2496	3	30.334	0.000	-30.334	-0.000	-0.000	0.000
2501	2493	2492	2491	3	30.334	0.000	-30.334	-0.000	-0.000	0.000
2499	2500	2494	2493	3	30.334	0.000	-30.334	-0.000	-0.000	0.000
2502	2501	2493	2494	3	30.334	0.000	-30.334	-0.000	-0.000	0.000
2496	2495	2494	2493	3	30.334	0.000	-30.334	-0.000	-0.000	0.000
2499	2500	2494	2495	3	30.334	0.000	-30.334	-0.000	-0.000	0.000
2502	2501	2493	2492	3	30.334	0.000	-30.334	-0.000	-0.000	0.000
2542	2506	2507	2508	3	16.027	-4.391	-14.029	2.393	-0.000	0.000
2497	2499	2500	2494	3	30.334	0.000	-30.334	-0.000	-0.000	0.000
2497	2496	2495	2494	3	30.334	0.000	-30.334	-0.000	-0.000	0.000
2543	2542	2506	2507	3	30.334	0.000	-30.334	-0.000	-0.000	0.000
2532	2527	2528	2529	3	30.334	0.000	-30.334	-0.000	-0.000	0.000
2543	2542	2506	2505	3	30.334	0.000	-30.334	-0.000	-0.000	0.000
2502	2490	2491	2492	3	30.334	0.000	-30.334	-0.000	-0.000	0.000
2542	2543	2503	2504	3	30.334	0.000	-30.334	-0.000	-0.000	0.000
2532	2531	2530	2529	3	30.334	0.000	-30.334	-0.000	-0.000	0.000
2531	2530	2529	2528	3	30.334	0.000	-30.334	-0.000	-0.000	0.000
2530	2529	2528	2527	3	30.334	0.000	-30.334	-0.000	-0.000	0.000
2506	2505	2504	2503	3	30.334	0.000	-30.334	-0.000	-0.000	0.000
2506	2542	2543	2503	3	30.334	0.000	-30.334	-0.000	-0.000	0.000
2543	2503	2504	2505	3	30.334	0.000	-30.334	-0.000	-0.000	0.000
2542	2506	2505	2504	3	30.334	0.000	-30.334	-0.000	-0.000	0.000
2531	2532	2527	2528	3	30.334	0.000	-30.334	-0.000	-0.000	0.000
2500	2499	2497	2496	3	30.334	0.000	-30.334	-0.000	-0.000	0.000
2501	2502	2490	2491	3	30.334	0.000	-30.334	-0.000	-0.000	0.000
2530	2531	2532	2527	3	30.334	0.000	-30.334	-0.000	-0.000	0.000
2499	2497	2496	2495	3	30.334	0.000	-30.334	-0.000	-0.000	0.000
2531	2532	2527	2526	3	30.334	0.000	-30.334	-0.000	-0.000	0.000
2529	2528	2527	2526	3	30.334	0.000	-30.334	-0.000	-0.000	0.000
2542	2543	2503	2486	3	30.334	0.000	-30.334	-0.000	-0.000	0.000
2505	2504	2503	2486	3	30.334	0.000	-30.334	-0.000	-0.000	0.000
2500	2499	2497	2498	3	0.0	0.0	0.0	-0.0	-0.0	0.0
2492	2491	2490	2489	3	30.334	0.000	-30.334	-0.000	-0.000	0.000
2501	2502	2490	2489	3	30.334	0.000	-30.334	-0.000	-0.000	0.000
2532	2527	2526	2515	3	0.000	0.000	0.000	-0.000	-0.000	0.000
2528	2527	2526	2515	3	0.000	0.000	0.000	-0.000	-0.000	0.000
2532	2527	2526	2525	3	0.000	0.000	0.000	-0.000	-0.000	0.000
2528	2527	2526	2525	3	0.000	0.000	0.000	-0.000	-0.000	0.000
2543	2503	2486	2487	3	5.184	35.932	-14.355	-26.761	-0.000	0.000
2504	2503	2486	2487	3	5.184	35.932	-14.355	-26.761	-0.000	0.000
2504	2503	2486	2485	3	5.184	35.932	-14.355	-26.761	-0.000	0.000
2543	2503	2486	2485	3	5.184	35.932	-14.355	-26.761	-0.000	0.000
2491	2490	2489	2488	3	12.552	0.000	-12.552	-0.000	-0.000	0.000
2502	2490	2489	2488	3	12.552	0.000	-12.552	-0.000	-0.000	0.000
2527	2526	2515	2514	3	6.322	-2.485	0.707	-4.544	-0.000	0.000
2527	2526	2515	2516	3	0.527	-6.397	-1.695	7.565	-0.000	0.000
2527	2526	2525	2519	3	1.715	2.845	1.046	-5.607	-0.000	0.000
2503	2486	2487	2488	3	1.789	3.492	0.536	-5.816	-0.000	0.000
2490	2489	2488	2487	3	1.715	2.845	1.046	-5.607	-0.000	0.000
2533	2526	2527	2528	3	0.000	0.000	0.000	-0.000	-0.000	0.000
2533	2526	2527	2532	3	0.000	0.000	0.000	-0.000	-0.000	0.000
2533	2526	2515	2514	3	6.322	-2.485	0.707	-4.544	-0.000	0.000
2533	2526	2515	2516	3	0.527	-6.397	-1.695	7.565	-0.000	0.000
2533	2526	2525	2519	3	1.715	2.845	1.046	-5.607	-0.000	0.000
2515	2514	2513	2512	3	21.738	2.408	-16.966	-7.180	-0.000	0.000
2520	2519	2516	2515	3	21.738	2.408	-16.966	-7.180	-0.000	0.000
2520	2519	2516	2517	3	-0.778	-2.335	0.000	3.113	-0.000	0.000
2541	2509	2508	2507	3	58.576	0.000	-58.576	-0.000	-0.000	0.000
2537	2511	2510	2509	3	58.576	0.000	-58.576	-0.000	-0.000	0.000
2541	2509	2510	2511	3	58.576	0.000	-58.576	-0.000	-0.000	0.000
2537	2511	2512	2513	3	58.576	0.000	-58.576	-0.000	-0.000	0.000
2526	2515	2514	2513	3	-0.778	-2.335	0.000	3.113	-0.000	0.000
2526	2515	2516	2519	3	58.576	0.000	-58.576	-0.000	-0.000	0.000
2526	2515	2516	2517	3	58.576	0.000	-58.576	-0.000	-0.000	0.000
2538	2541	2509	2508	3	0.527	-6.397	-1.695	7.565	-0.000	0.000
2538	2537	2511	2512	3	0.527	-6.397	-1.695	7.565	-0.000	0.000
2538	2537	2511	2510	3	0.527	-6.397	-1.695	7.565	-0.000	0.000
2538	2541	2509	2510	3	0.527	-6.397	-1.695	7.565	-0.000	0.000
2541	2538	2537	2511	3	2.301	-1.464	0.837	-1.674	-0.000	0.000
2540	2538	2541	2509	3	2.301	-1.464	0.837	-1.674	-0.000	0.000
2537	2538	2541	2509	3	2.301	-1.464	0.837	-1.674	-0.000	0.000
2539	2538	2541	2509	3	2.301	-1.464	0.837	-1.674	-0.000	0.000
2540	2538	2537	2511	3	2.301	-1.464	0.837	-1.674	-0.000	0.000
2539	2538	2537	2511	3	2.301	-1.464	0.837	-1.674	-0.000	0.000
2488	2487	2486	2485	3	1.789	3.492	0.536	-5.816	-0.000	0.000
2526	2525	2519	2516	3	30.334	0.000	-30.334	-0.000	-0.000	0.000
2526	2525	2519	2520	3	30.334	0.000	-30.334	-0.000	-0.000	0.000
2519	2516	2515	2514	3	58.576	0.000	-58.576	-0.000	-0.000	0.000
2519	2525	2526	2515	3	1.715	2.845	1.046	-5.607	-0.000	0.000
2517	2516	2515	2514	3	58.576	0.000	-58.576	-0.000	-0.000	0.000
2521	2520	2519	2516	3	58.576	0.000	-58.576	-0.000	-0.000	0.000
2523	2520	2519	2516	3	58.576	0.000	-58.576	-0.000	-0.000	0.000
2534	2533	2526	2527	3	0.000	0.000	0.000	-0.000	-0.000	0.000
2535	2533	2526	2527	3	0.000	0.000	0.000	-0.000	-0.000	0.000
2536	2533	2526	2527	3	0.000	0.000	0.000	-0.000	-0.000	0.000
2535	2533	2526	2515	3	0.000	0.000	0.000	-0.000	-0.000	0.000
2534	2533	2526	2515	3	0.000	0.000	0.000	-0.000	-0.000	0.000
2536	2533	2526	2515	3	0.000	0.000	0.000	-0.000	-0.000	0.000
2535	2533	2526	2525	3	1.130	3.389	0.000	-4.519	-0.000	0.000
2536	2533	2526	2525	3	1.130	3.389	0.000	-4.519	-0.000	0.000
2534	2533	2526	2525	3	1.130	3.389	0.000	-4.519	-0.000	0.000
2564	2510	2509	2508	3	58.576	0.000	-58.576	-0.000	-0.000	0.000
2564	2510	2511	2512	3	58.576	0.000	-58.576	-0.000	-0.000	0.000
2564	2510	2511	2537	3	58.576	0.000	-58.576	-0.000	-0.000	0.000
2564	2510	2509	2541	3	58.576	0.000	-58.576	-0.000	-0.000	0.000
2553	2495	2494	2493	3	30.334	0.000	-30.334	-0.000	-0.000	0.000
2552	2492	2493	2494	3	30.334	0.000	-30.334	-0.000	-0.000	0.000
2558	2501	2493	2494	3	30.334	0.000	-30.334	-0.000	-0.000	0.000
2557	2500	2494	2493	3	30.334	0.000	-30.334	-0.000	-0.000	0.000
2557	2500	2494	2495	3	30.334	0.000	-30.334	-0.000	-0.000	0.000
2553	2495	2494	2500	3	30.334	0.000	-30.334	-0.000	-0.000	0.000
2552	2492	2493	2501	3	30.334	0.000	-30.334	-0.000	-0.000	0.000
2558	2501	2493	2492	3	30.334	0.000	-30.334	-0.000	-0.000	0.000
2551	2491	2492	2493	3	30.334	0.000	-30.334	-0.000	-0.000	0.000
2559	2502	2501	2493	3	30.334	0.000	-30.334	-0.000	-0.000	0.000
2554	2496	2495	2494	3	30.334	0.000	-30.334	-0.000	-0.000	0.000
2556	2499	2500	2494	3	30.334	0.000	-30.334	-0.000	-0.000	0.000
2561	2505	2506	2507	3	30.334	0.000	-30.334	-0.000	-0.000	0.000
2583	2542	2506	2507	3	30.334	0.000	-30.334	-0.000	-0.000	0.000
2568	2528	2529	2530	3	30.334	0.000	-30.334	-0.000	-0.000	0.000
2556	2499	2497	2496	3	30.334	0.000	-30.334	-0.000	-0.000	0.000
2571	2531	2530	2529	3	30.334	0.000	-30.334	-0.000	-0.000	0.000
2583	2542	2543	2503	3	30.334	0.000	-30.334	-0.000	-0.000	0.000
2569	2529	2528	2527	3	30.334	0.000	-30.334	-0.000	-0.000	0.000
2584	2543	2542	2506	3	30.334	0.000	-30.334	-0.000	-0.000	0.000
2570	2530	2529	2528	3	30.334	0.000	-30.334	-0.000	-0.000	0.000
2559	2502	2490	2491	3	30.334	0.000	-30.334	-0.000	-0.000	0.000
2558	2501	2502	2490	3	30.334	0.000	-30.334	-0.000	-0.000	0.000
2583	2542	2506	2505	3	30.334	0.000	-30.334	-0.000	-0.000	0.000
2584	2543	2503	2504	3	30.334	0.000	-30.334	-0.000	-0.000	0.000
2571	2531	2532	2527	3	30.334	0.000	-30.334	-0.000	-0.000	0.000
2568	2528	2527	2532	3	30.334	0.000	-30.334	-0.000	-0.000	0.000
2553	2495	2496	2497	3	30.334	0.000	-30.334	-0.000	-0.000	0.000
2554	2496	2497	2499	3	30.334	0.000	-30.334	-0.000	-0.000	0.000
2551	2491	2490	2502	3	30.334	0.000	-30.334	-0.000	-0.000	0.000
2560	2504	2503	2543	3	30.334	0.000	-30.334	-0.000	-0.000	0.000
2560	2504	2505	2506	3	30.334	0.000	-30.334	-0.000	-0.000	0.000
2557	2500	2499	2497	3	30.334	0.000	-30.334	-0.000	-0.000	0.000
2561	2505	2506	2542	3	30.334	0.000	-30.334	-0.000	-0.000	0.000
2570	2530	2531	2532	3	30.334	0.000	-30.334	-0.000	-0.000	0.000
2572	2532	2531	2530	3	30.334	0.000	-30.334	-0.000	-0.000	0.000
2569	2529	2530	2531	3	30.334	0.000	-30.334	-0.000	-0.000	0.000
2572	2532	2527	2528	3	30.334	0.000	-30.334	-0.000	-0.000	0.000
2552	2492	2491	2490	3	30.334	0.000	-30.334	-0.000	-0.000	0.000
2561	2505	2504	2503	3	30.334	0.000	-30.334	-0.000	-0.000	0.000
2572	2532	2527	2526	3	30.334	0.000	-30.334	-0.000	-0.000	0.000
2568	2528	2527	2526	3	30.334	0.000	-30.334	-0.000	-0.000	0.000
2561	2505	2504	2560	3	30.334	0.000	-30.334	-0.000	-0.000	0.000
2584	2543	2542	2583	3	30.334	0.000	-30.334	-0.000	-0.000	0.000
2570	2530	2529	2569	3	30.334	0.000	-30.334	-0.000	-0.000	0.000
2554	2496	2495	2553	3	30.334	0.000	-30.334	-0.000	-0.000	0.000
2559	2502	2501	2558	3	30.334	0.000	-30.334	-0.000	-0.000	0.000
2557	2500	2499	2556	3	30.334	0.000	-30.334	-0.000	-0.000	0.000
2569	2529	2528	2568	3	30.334	0.000	-30.334	-0.000	-0.000	0.000
2552	2492	2491	2551	3	30.334	0.000	-30.334	-0.000	-0.000	0.000
2571	2531	2530	2570	3	30.334	0.000	-30.334	-0.000	-0.000	0.000
2572	2532	2531	2571	3	30.334	0.000	-30.334	-0.000	-0.000	0.000
2584	2543	2503	2486	3	30.334	0.000	-30.334	-0.000	-0.000	0.000
2560	2504	2503	2486	3	30.334	0.000	-30.334	-0.000	-0.000	0.000
2554	2496	2497	2498	3	0.0	0.0	0.0	-0.0	-0.0	0.0
2556	2499	2497	2498	3	0.0	0.0	0.0	-0.0	-0.0	0.0
2551	2491	2490	2489	3	30.334	0.000	-30.334	-0.000	-0.000	0.000
2559	2502	2490	2489	3	30.334	0.000	-30.334	-0.000	-0.000	0.000
2565	2512	2511	2510	3	58.576	0.000	-58.576	-0.000	-0.000	0.000
2565	2512	2513	2514	3	58.576	0.000	-58.576	-0.000	-0.000	0.000
2567	2514	2513	2512	3	58.576	0.000	-58.576	-0.000	-0.000	0.000
2566	2513	2512	2511	3	58.576	0.000	-58.576	-0.000	-0.000	0.000
2563	2508	2509	2510	3	58.576	0.000	-58.576	-0.000	-0.000	0.000
2562	2507	2508	2509	3	58.576	0.000	-58.576	-0.000	-0.000	0.000
2563	2508	2507	2506	3	58.576	0.000	-58.576	-0.000	-0.000	0.000
2566	2513	2514	2515	3	58.576	0.000	-58.576	-0.000	-0.000	0.000
2565	2512	2511	2537	3	58.576	0.000	-58.576	-0.000	-0.000	0.000
2563	2508	2509	2541	3	58.576	0.000	-58.576	-0.000	-0.000	0.000
2563	2508	2507	2562	3	58.576	0.000	-58.576	-0.000	-0.000	0.000
2566	2513	2512	2565	3	58.576	0.000	-58.576	-0.000	-0.000	0.000
2567	2514	2513	2566	3	58.576	0.000	-58.576	-0.000	-0.000	0.000
2562	2507	2506	2542	3	-0.778	-2.335	0.000	3.113	-0.000	0.000
2562	2507	2506	2505	3	-0.778	-2.335	0.000	3.113	-0.000	0.000
2567	2514	2515	2516	3	58.576	0.000	-58.576	-0.000	-0.000	0.000
2567	2514	2515	2526	3	58.576	0.000	-58.576	-0.000	-0.000	0.000
2581	2541	2509	2508	3	-0.778	-2.335	0.000	3.113	-0.000	0.000
2581	2541	2509	2510	3	-0.778	-2.335	0.000	3.113	-0.000	0.000
2582	2541	2509	2508	3	-0.778	-2.335	0.000	3.113	-0.000	0.000
2574	2537	2511	2512	3	-0.778	-2.335	0.000	3.113	-0.000	0.000
2582	2541	2509	2510	3	-0.778	-2.335	0.000	3.113	-0.000	0.000
2573	2537	2511	2510	3	-0.778	-2.335	0.000	3.113	-0.000	0.000
2574	2537	2511	2510	3	-0.778	-2.335	0.000	3.113	-0.000	0.000
2573	2537	2511	2512	3	-0.778	-2.335	0.000	3.113	-0.000	0.000
2576	2539	2538	2541	3	0.628	1.883	0.000	-2.510	-0.000	0.000
2575	2539	2538	2540	3	0.628	1.883	0.000	-2.510	-0.000	0.000
2575	2539	2538	2537	3	0.628	1.883	0.000	-2.510	-0.000	0.000
2577	2539	2538	2540	3	0.628	1.883	0.000	-2.510	-0.000	0.000
2579	2540	2538	2537	3	0.628	1.883	0.000	-2.510	-0.000	0.000
2578	2540	2538	2537	3	0.628	1.883	0.000	-2.510	-0.000	0.000
2577	2539	2538	2537	3	0.628	1.883	0.000	-2.510	-0.000	0.000
2579	2540	2538	2539	3	0.628	1.883	0.000	-2.510	-0.000	0.000
2576	2539	2538	2537	3	0.628	1.883	0.000	-2.510	-0.000	0.000
2581	2541	2538	2537	3	0.628	1.883	0.000	-2.510	-0.000	0.000
2581	2541	2538	2539	3	0.628	1.883	0.000	-2.510	-0.000	0.000
2574	2537	2538	2539	3	0.628	1.883	0.000	-2.510	-0.000	0.000
2577	2539	2538	2541	3	0.628	1.883	0.000	-2.510	-0.000	0.000
2574	2537	2538	2540	3	0.628	1.883	0.000	-2.510	-0.000	0.000
2582	2541	2538	2539	3	0.628	1.883	0.000	-2.510	-0.000	0.000
2578	2540	2538	2541	3	0.628	1.883	0.000	-2.510	-0.000	0.000
2579	2540	2538	2541	3	0.628	1.883	0.000	-2.510	-0.000	0.000
2580	2540	2538	2537	3	0.628	1.883	0.000	-2.510	-0.000	0.000
2573	2537	2538	2540	3	0.628	1.883	0.000	-2.510	-0.000	0.000
2573	2537	2538	2539	3	0.628	1.883	0.000	-2.510	-0.000	0.000
2578	2540	2538	2539	3	0.628	1.883	0.000	-2.510	-0.000	0.000
2574	2537	2538	2541	3	0.628	1.883	0.000	-2.510	-0.000	0.000
2582	2541	2538	2540	3	0.628	1.883	0.000	-2.510	-0.000	0.000
2576	2539	2538	2540	3	0.628	1.883	0.000	-2.510	-0.000	0.000
2575	2539	2538	2541	3	0.628	1.883	0.000	-2.510	-0.000	0.000
2582	2541	2538	2537	3	0.628	1.883	0.000	-2.510	-0.000	0.000
2573	2537	2538	2541	3	0.628	1.883	0.000	-2.510	-0.000	0.000
2580	2540	2538	2539	3	0.628	1.883	0.000	-2.510	-0.000	0.000
2581	2541	2538	2540	3	0.628	1.883	0.000	-2.510	-0.000	0.000
2580	2540	2538	2541	3	0.628	1.883	0.000	-2.510	-0.000	0.000
2549	2488	2487	2548	3	0.628	1.883	0.000	-2.510	-0.000	0.000
2550	2488	2487	2547	3	0.628	1.883	0.000	-2.510	-0.000	0.000
2549	2488	2487	2547	3	0.628	1.883	0.000	-2.510	-0.000	0.000
2550	2488	2487	2548	3	0.628	1.883	0.000	-2.510	-0.000	0.000
2550	2488	2487	2486	3	-4.096	5.088	2.966	-3.958	-0.000	0.000
2549	2488	2487	2486	3	-4.096	5.088	2.966	-3.958	-0.000	0.000
2548	2487	2488	2489	3	0.979	2.937	0.000	-3.916	-0.000	0.000
2547	2487	2488	2489	3	0.979	2.937	0.000	-3.916	-0.000	0.000
2548	2487	2486	2503	3	1.172	3.515	0.000	-4.686	-0.000	0.000
2544	2485	2486	2503	3	1.172	3.515	0.000	-4.686	-0.000	0.000
2547	2487	2486	2503	3	1.172	3.515	0.000	-4.686	-0.000	0.000
2545	2485	2486	2503	3	1.172	3.515	0.000	-4.686	-0.000	0.000
2546	2485	2486	2503	3	1.172	3.515	0.000	-4.686	-0.000	0.000
2547	2487	2486	2485	3	1.172	3.515	0.000	-4.686	-0.000	0.000
2545	2485	2486	2487	3	1.172	3.515	0.000	-4.686	-0.000	0.000
2548	2487	2486	2485	3	1.172	3.515	0.000	-4.686	-0.000	0.000
2546	2485	2486	2487	3	1.172	3.515	0.000	-4.686	-0.000	0.000
2544	2485	2486	2487	3	1.172	3.515	0.000	-4.686	-0.000	0.000
2549	2488	2489	2490	3	1.590	4.770	0.000	-6.360	-0.000	0.000
2550	2488	2489	2490	3	1.590	4.770	0.000	-6.360	-0.000	0.000
2555	2498	2497	2499	3	0.0	0.0	0.0	-0.0	-0.0	0.0
2555	2498	2497	2496	3	0.0	0.0	0.0	-0.0	-0.0	0.0
2498	2497	2496	2495	3	0.0	0.0	0.0	-0.0	-0.0	0.0
2525	2526	2515	2514	3	2.874	0.582	2.092	-5.548	-0.000	0.000
2525	2526	2515	2516	3	1.046	-1.046	0.000	-0.000	-0.000	0.000
2489	2488	2487	2486	3	16.736	-16.736	0.000	-0.000	-0.000	0.000
2525	2519	2516	2515	3	1.046	-1.046	0.000	-0.000	-0.000	0.000
2525	2519	2516	2517	3	9.079	0.000	-9.079	-0.000	-0.000	0.000
2594	2593	2592	2591	3	30.334	0.000	-30.334	-0.000	-0.000	0.000
2593	2601	2602	2590	3	30.334	0.000	-30.334	-0.000	-0.000	0.000
2593	2592	2591	2590	3	30.334	0.000	-30.334	-0.000	-0.000	0.000
2614	2613	2612	2611	3	21.738	2.408	-16.966	-7.180	-0.000	0.000
2610	2609	2608	2607	3	21.738	2.408	-16.966	-7.180	-0.000	0.000
2611	2610	2609	2608	3	21.738	2.408	-16.966	-7.180	-0.000	0.000
2612	2611	2610	2609	3	21.738	2.408	-16.966	-7.180	-0.000	0.000
2613	2612	2611	2610	3	21.738	2.408	-16.966	-7.180	-0.000	0.000
2609	2608	2607	2606	3	58.576	0.000	-58.576	-0.000	-0.000	0.000
2608	2607	2606	2605	3	16.027	-4.391	-14.029	2.393	-0.000	0.000
2607	2606	2605	2604	3	30.334	0.000	-30.334	-0.000	-0.000	0.000
2616	2615	2614	2613	3	58.576	0.000	-58.576	-0.000	-0.000	0.000
2601	2593	2594	2600	3	9.079	0.000	-9.079	-0.000	-0.000	0.000
2600	2594	2593	2592	3	9.079	0.000	-9.079	-0.000	-0.000	0.000
2601	2593	2594	2595	3	9.079	0.000	-9.079	-0.000	-0.000	0.000
2595	2594	2593	2592	3	9.079	0.000	-9.079	-0.000	-0.000	0.000
2600	2594	2595	2596	3	30.334	0.000	-30.334	-0.000	-0.000	0.000
2601	2593	2592	2591	3	30.334	0.000	-30.334	-0.000	-0.000	0.000
2599	2600	2594	2593	3	30.334	0.000	-30.334	-0.000	-0.000	0.000
2602	2601	2593	2594	3	30.334	0.000	-30.334	-0.000	-0.000	0.000
2596	2595	2594	2593	3	30.334	0.000	-30.334	-0.000	-0.000	0.000
2599	2600	2594	2595	3	30.334	0.000	-30.334	-0.000	-0.000	0.000
2602	2601	2593	2592	3	30.334	0.000	-30.334	-0.000	-0.000	0.000
2642	2606	2607	2608	3	16.027	-4.391	-14.029	2.393	-0.000	0.000
2597	2599	2600	2594	3	30.334	0.000	-30.334	-0.000	-0.000	0.000
2597	2596	2595	2594	3	30.334	0.000	-30.334	-0.000	-0.000	0.000
2643	2642	2606	2607	3	30.334	0.000	-30.334	-0.000	-0.000	0.000
2632	2627	2628	2629	3	30.334	0.000	-30.334	-0.000	-0.000	0.000
2643	2642	2606	2605	3	30.334	0.000	-30.334	-0.000	-0.000	0.000
2602	2590	2591	2592	3	30.334	0.000	-30.334	-0.000	-0.000	0.000
2642	2643	2603	2604	3	30.334	0.000	-30.334	-0.000	-0.000	0.000
2632	2631	2630	2629	3	30.334	0.000	-30.334	-0.000	-0.000	0.000
2631	2630	2629	2628	3	30.334	0.000	-30.334	-0.000	-0.000	0.000
2630	2629	2628	2627	3	30.334	0.000	-30.334	-0.000	-0.000	0.000
2606	2605	2604	2603	3	30.334	0.000	-30.334	-0.000	-0.000	0.000
2606	2642	2643	2603	3	30.334	0.000	-30.334	-0.000	-0.000	0.000
2643	2603	2604	2605	3	30.334	0.000	-30.334	-0.000	-0.000	0.000
2642	2606	2605	2604	3	30.334	0.000	-30.334	-0.000	-0.000	0.000
2631	2632	2627	2628	3	30.334	0.000	-30.334	-0.000	-0.000	0.000
2600	2599	2597	2596	3	30.334	0.000	-30.334	-0.000	-0.000	0.000
2601	2602	2590	2591	3	30.334	0.000	-30.334	-0.000	-0.000	0.000
2630	2631	2632	2627	3	30.334	0.000	-30.334	-0.000	-0.000	0.000
2599	2597	2596	2595	3	30.334	0.000	-30.334	-0.000	-0.000	0.000
2631	2632	2627	2626	3	30.334	0.000	-30.334	-0.000	-0.000	0.000
2629	2628	2627	2626	3	30.334	0.000	-30.334	-0.000	-0.000	0.000
2642	2643	2603	2586	3	30.334	0.000	-30.334	-0.000	-0.000	0.000
2605	2604	2603	2586	3	30.334	0.000	-30.334	-0.000	-0.000	0.000
2600	2599	2597	2598	3	0.0	0.0	0.0	-0.0	-0.0	0.0
2592	2591	2590	2589	3	30.334	0.000	-30.334	-0.000	-0.000	0.000
2601	2602	2590	2589	3	30.334	0.000	-30.334	-0.000	-0.000	0.000
2632	2627	2626	2615	3	0.000	0.000	0.000	-0.000	-0.000	0.000
2628	2627	2626	2615	3	0.000	0.000	0.000	-0.000	-0.000	0.000
2632	2627	2626	2625	3	0.000	0.000	0.000	-0.000	-0.000	0.000
2628	2627	2626	2625	3	0.000	0.000	0.000	-0.000	-0.000	0.000
2643	2603	2586	2587	3	5.184	35.932	-14.355	-26.761	-0.000	0.000
2604	2603	2586	2587	3	5.184	35.932	-14.355	-26.761	-0.000	0.000
2604	2603	2586	2585	3	5.184	35.932	-14.355	-26.761	-0.000	0.000
2643	2603	2586	2585	3	5.184	35.932	-14.355	-26.761	-0.000	0.000
2591	2590	2589	2588	3	12.552	0.000	-12.552	-0.000	-0.000	0.000
2602	2590	2589	2588	3	12.552	0.000	-12.552	-0.000	-0.000	0.000
2627	2626	2615	2614	3	6.322	-2.485	0.707	-4.544	-0.000	0.000
2627	2626	2615	2616	3	0.527	-6.397	-1.695	7.565	-0.000	0.000
2627	2626	2625	2619	3	1.715	2.845	1.046	-5.607	-0.000	0.000
2603	2586	2587	2588	3	1.789	3.492	0.536	-5.816	-0.000	0.000
2590	2589	2588	2587	3	1.715	2.845	1.046	-5.607	-0.000	0.000
2633	2626	2627	2628	3	0.000	0.000	0.000	-0.000	-0.000	0.000
2633	2626	2627	2632	3	0.000	0.000	0.000	-0.000	-0.000	0.000
2633	2626	2615	2614	3	6.322	-2.485	0.707	-4.544	-0.000	0.000
2633	2626	2615	2616	3	0.527	-6.397	-1.695	7.565	-0.000	0.000
2633	2626	2625	2619	3	1.715	2.845	1.046	-5.607	-0.000	0.000
2615	2614	2613	2612	3	21.738	2.408	-16.966	-7.180	-0.000	0.000
2620	2619	2616	2615	3	21.738	2.408	-16.966	-7.180	-0.000	0.000
2620	2619	2616	2617	3	-0.778	-2.335	0.000	3.113	-0.000	0.000
2641	2609	2608	2607	3	58.576	0.000	-58.576	-0.000	-0.000	0.000
2637	2611	2610	2609	3	58.576	0.000	-58.576	-0.000	-0.000	0.000
2641	2609	2610	2611	3	58.576	0.000	-58.576	-0.000	-0.000	0.000
2637	2611	2612	2613	3	58.576	0.000	-58.576	-0.000	-0.000	0.000
2626	2615	2614	2613	3	-0.778	-2.335	0.000	3.113	-0.000	0.000
2626	2615	2616	2619	3	58.576	0.000	-58.576	-0.000	-0.000	0.000
2626	2615	2616	2617	3	58.576	0.000	-58.576	-0.000	-0.000	0.000
2638	2641	2609	2608	3	0.527	-6.397	-1.695	7.565	-0.000	0.000
2638	2637	2611	2612	3	0.527	-6.397	-1.695	7.565	-0.000	0.000
2638	2637	2611	2610	3	0.527	-6.397	-1.695	7.565	-0.000	0.000
2638	2641	2609	2610	3	0.527	-6.397	-1.695	7.565	-0.000	0.000
2641	2638	2637	2611	3	2.301	-1.464	0.837	-1.674	-0.000	0.000
2640	2638	2641	2609	3	2.301	-1.464	0.837	-1.674	-0.000	0.000
2637	2638	2641	2609	3	2.301	-1.464	0.837	-1.674	-0.000	0.000
2639	2638	2641	2609	3	2.301	-1.464	0.837	-1.674	-0.000	0.000
2640	2638	2637	2611	3	2.301	-1.464	0.837	-1.674	-0.000	0.000
2639	2638	2637	2611	3	2.301	-1.464	0.837	-1.674	-0.000	0.000
2588	2587	2586	2585	3	1.789	3.492	0.536	-5.816	-0.000	0.000
2626	2625	2619	2616	3	30.334	0.000	-30.334	-0.000	-0.000	0.000
2626	2625	2619	2620	3	30.334	0.000	-30.334	-0.000	-0.000	0.000
2619	2616	2615	2614	3	58.576	0.000	-58.576	-0.000	-0.000	0.000
2619	2625	2626	2615	3	1.715	2.845	1.046	-5.607	-0.000	0.000
2617	2616	2615	2614	3	58.576	0.000	-58.576	-0.000	-0.000	0.000
2621	2620	2619	2616	3	58.576	0.000	-58.576	-0.000	-0.000	0.000
2623	2620	2619	2616	3	58.576	0.000	-58.576	-0.000	-0.000	0.000
2634	2633	2626	2627	3	0.000	0.000	0.000	-0.000	-0.000	0.000
2635	2633	2626	2627	3	0.000	0.000	0.000	-0.000	-0.000	0.000
2636	2633	2626	2627	3	0.000	0.000	0.000	-0.000	-0.000	0.000
2635	2633	2626	2615	3	0.000	0.000	0.000	-0.000	-0.000	0.000
2634	2633	2626	2615	3	0.000	0.000	0.000	-0.000	-0.000	0.000
2636	2633	2626	2615	3	0.000	0.000	0.000	-0.000	-0.000	0.000
2635	2633	2626	2625	3	1.130	3.389	0.000	-4.519	-0.000	0.000
2636	2633	2626	2625	3	1.130	3.389	0.000	-4.519	-0.000	0.000
2634	2633	2626	2625	3	1.130	3.389	0.000	-4.519	-0.000	0.000
2664	2610	2609	2608	3	58.576	0.000	-58.576	-0.000	-0.000	0.000
2664	2610	2611	2612	3	58.576	0.000	-58.576	-0.000	-0.000	0.000
2664	2610	2611	2637	3	58.576	0.000	-58.576	-0.000	-0.000	0.000
2664	2610	2609	2641	3	58.576	0.000	-58.576	-0.000	-0.000	0.000
2653	2595	2594	2593	3	30.334	0.000	-30.334	-0.000	-0.000	0.000
2652	2592	2593	2594	3	30.334	0.000	-30.334	-0.000	-0.000	0.000
2658	2601	2593	2594	3	30.334	0.000	-30.334	-0.000	-0.000	0.000
2657	2600	2594	2593	3	30.334	0.000	-30.334	-0.000	-0.000	0.000
2657	2600	2594	2595	3	30.334	0.000	-30.334	-0.000	-0.000	0.000
2653	2595	2594	2600	3	30.334	0.000	-30.334	-0.000	-0.000	0.000
2652	2592	2593	2601	3	30.334	0.000	-30.334	-0.000	-0.000	0.000
2658	2601	2593	2592	3	30.334	0.000	-30.334	-0.000	-0.000	0.000
2651	2591	2592	2593	3	30.334	0.000	-30.334	-0.000	-0.000	0.000
2659	2602	2601	2593	3	30.334	0.000	-30.334	-0.000	-0.000	0.000
2654	2596	2595	2594	3	30.334	0.000	-30.334	-0.000	-0.000	0.000
2656	2599	2600	2594	3	30.334	0.000	-30.334	-0.000	-0.000	0.000
2661	2605	2606	2607	3	30.334	0.000	-30.334	-0.000	-0.000	0.000
2683	2642	2606	2607	3	30.334	0.000	-30.334	-0.000	-0.000	0.000
2668	2628	2629	2630	3	30.334	0.000	-30.334	-0.000	-0.000	0.000
2656	2599	2597	2596	3	30.334	0.000	-30.334	-0.000	-0.000	0.000
2671	2631	2630	2629	3	30.334	0.000	-30.334	-0.000	-0.000	0.000
2683	2642	2643	2603	3	30.334	0.000	-30.334	-0.000	-0.000	0.000
2669	2629	2628	2627	3	30.334	0.000	-30.334	-0.000	-0.000	0.000
2684	2643	2642	2606	3	30.334	0.000	-30.334	-0.000	-0.000	0.000
2670	2630	2629	2628	3	30.334	0.000	-30.334	-0.000	-0.000	0.000
2659	2602	2590	2591	3	30.334	0.000	-30.334	-0.000	-0.000	0.000
2658	2601	2602	2590	3	30.334	0.000	-30.334	-0.000	-0.000	0.000
2683	2642	2606	2605	3	30.334	0.000	-30.334	-0.000	-0.000	0.000
2684	2643	2603	2604	3	30.334	0.000	-30.334	-0.000	-0.000	0.000
2671	2631	2632	2627	3	30.334	0.000	-30.334	-0.000	-0.000	0.000
2668	2628	2627	2632	3	30.334	0.000	-30.334	-0.000	-0.000	0.000
2653	2595	2596	2597	3	30.334	0.000	-30.334	-0.000	-0.000	0.000
2654	2596	2597	2599	3	30.334	0.000	-30.334	-0.000	-0.000	0.000
2651	2591	2590	2602	3	30.334	0.000	-30.334	-0.000	-0.000	0.000
2660	2604	2603	2643	3	30.334	0.000	-30.334	-0.000	-0.000	0.000
2660	2604	2605	2606	3	30.334	0.000	-30.334	-0.000	-0.000	0.000
2657	2600	2599	2597	3	30.334	0.000	-30.334	-0.000	-0.000	0.000
2661	2605	2606	2642	3	30.334	0.000	-30.334	-0.000	-0.000	0.000
2670	2630	2631	2632	3	30.334	0.000	-30.334	-0.000	-0.000	0.000
2672	2632	2631	2630	3	30.334	0.000	-30.334	-0.000	-0.000	0.000
2669	2629	2630	2631	3	30.334	0.000	-30.334	-0.000	-0.000	0.000
2672	2632	2627	2628	3	30.334	0.000	-30.334	-0.000	-0.000	0.000
2652	2592	2591	2590	3	30.334	0.000	-30.334	-0.000	-0.000	0.000
2661	2605	2604	2603	3	30.334	0.000	-30.334	-0.000	-0.000	0.000
2672	2632	2627	2626	3	30.334	0.000	-30.334	-0.000	-0.000	0.000
2668	2628	2627	2626	3	30.334	0.000	-30.334	-0.000	-0.000	0.000
2661	2605	2604	2660	3	30.334	0.000	-30.334	-0.000	-0.000	0.000
2684	2643	2642	2683	3	30.334	0.000	-30.334	-0.000	-0.000	0.000
2670	2630	2629	2669	3	30.334	0.000	-30.334	-0.000	-0.000	0.000
2654	2596	2595	2653	3	30.334	0.000	-30.334	-0.000	-0.000	0.000
2659	2602	2601	2658	3	30.334	0.000	-30.334	-0.000	-0.000	0.000
2657	2600	2599	2656	3	30.334	0.000	-30.334	-0.000	-0.000	0.000
2669	2629	2628	2668	3	30.334	0.000	-30.334	-0.000	-0.000	0.000
2652	2592	2591	2651	3	30.334	0.000	-30.334	-0.000	-0.000	0.000
2671	2631	2630	2670	3	30.334	0.000	-30.334	-0.000	-0.000	0.000
2672	2632	2631	2671	3	30.334	0.000	-30.334	-0.000	-0.000	0.000
2684	2643	2603	2586	3	30.334	0.000	-30.334	-0.000	-0.000	0.000
2660	2604	2603	2586	3	30.334	0.000	-30.334	-0.000	-0.000	0.000
2654	2596	2597	2598	3	0.0	0.0	0.0	-0.0	-0.0	0.0
2656	2599	2597	2598	3	0.0	0.0	0.0	-0.0	-0.0	0.0
2651	2591	2590	2589	3	30.334	0.000	-30.334	-0.000	-0.000	0.000
2659	2602	2590	2589	3	30.334	0.000	-30.334	-0.000	-0.000	0.000
2665	2612	2611	2610	3	58.576	0.000	-58.576	-0.000	-0.000	0.000
2665	2612	2613	2614	3	58.576	0.000	-58.576	-0.000	-0.000	0.000
2667	2614	2613	2612	3	58.576	0.000	-58.576	-0.000	-0.000	0.000
2666	2613	2612	2611	3	58.576	0.000	-58.576	-0.000	-0.000	0.000
2663	2608	2609	2610	3	58.576	0.000	-58.576	-0.000	-0.000	0.000
2662	2607	2608	2609	3	58.576	0.000	-58.576	-0.000	-0.000	0.000
2663	2608	2607	2606	3	58.576	0.000	-58.576	-0.000	-0.000	0.000
2666	2613	2614	2615	3	58.576	0.000	-58.576	-0.000	-0.000	0.000
2665	2612	2611	2637	3	58.576	0.000	-58.576	-0.000	-0.000	0.000
2663	2608	2609	2641	3	58.576	0.000	-58.576	-0.000	-0.000	0.000
2663	2608	2607	2662	3	58.576	0.000	-58.576	-0.000	-0.000	0.000
2666	2613	2612	2665	3	58.576	0.000	-58.576	-0.000	-0.000	0.000
2667	2614	2613	2666	3	58.576	0.000	-58.576	-0.000	-0.000	0.000
2662	2607	2606	2642	3	-0.778	-2.335	0.000	3.113	-0.000	0.000
2662	2607	2606	2605	3	-0.778	-2.335	0.000	3.113	-0.000	0.000
2667	2614	2615	2616	3	58.576	0.000	-58.576	-0.000	-0.000	0.000
2667	2614	2615	2626	3	58.576	0.000	-58.576	-0.000	-0.000	0.000
2681	2641	2609	2608	3	-0.778	-2.335	0.000	3.113	-0.000	0.000
2681	2641	2609	2610	3	-0.778	-2.335	0.000	3.113	-0.000	0.000
2682	2641	2609	2608	3	-0.778	-2.335	0.000	3.113	-0.000	0.000
2674	2637	2611	2612	3	-0.778	-2.335	0.000	3.113	-0.000	0.000
2682	2641	2609	2610	3	-0.778	-2.335	0.000	3.113	-0.000	0.000
2673	2637	2611	2610	3	-0.778	-2.335	0.000	3.113	-0.000	0.000
2674	2637	2611	2610	3	-0.778	-2.335	0.000	3.113	-0.000	0.000
2673	2637	2611	2612	3	-0.778	-2.335	0.000	3.113	-0.000	0.000
2676	2639	2638	2641	3	0.628	1.883	0.000	-2.510	-0.000	0.000
2675	2639	2638	2640	3	0.628	1.883	0.000	-2.510	-0.000	0.000
2675	2639	2638	2637	3	0.628	1.883	0.000	-2.510	-0.000	0.000
2677	2639	2638	2640	3	0.628	1.883	0.000	-2.510	-0.000	0.000
2679	2640	2638	2637	3	0.628	1.883	0.000	-2.510	-0.000	0.000
2678	2640	2638	2637	3	0.628	1.883	0.000	-2.510	-0.000	0.000
2677	2639	2638	2637	3	0.628	1.883	0.000	-2.510	-0.000	0.000
2679	2640	2638	2639	3	0.628	1.883	0.000	-2.510	-0.000	0.000
2676	2639	2638	2637	3	0.628	1.883	0.000	-2.510	-0.000	0.000
2681	2641	2638	2637	3	0.628	1.883	0.000	-2.510	-0.000	0.000
2681	2641	2638	2639	3	0.628	1.883	0.000	-2.510	-0.000	0.000
2674	2637	2638	2639	3	0.628	1.883	0.000	-2.510	-0.000	0.000
2677	2639	2638	2641	3	0.628	1.883	0.000	-2.510	-0.000	0.000
2674	2637	2638	2640	3	0.628	1.883	0.000	-2.510	-0.000	0.000
2682	2641	2638	2639	3	0.628	1.883	0.000	-2.510	-0.000	0.000
2678	2640	2638	2641	3	0.628	1.883	0.000	-2.510	-0.000	0.000
2679	2640	2638	2641	3	0.628	1.883	0.000	-2.510	-0.000	0.000
2680	2640	2638	2637	3	0.628	1.883	0.000	-2.510	-0.000	0.000
2673	2637	2638	2640	3	0.628	1.883	0.000	-2.510	-0.000	0.000
2673	2637	2638	2639	3	0.628	1.883	0.000	-2.510	-0.000	0.000
2678	2640	2638	2639	3	0.628	1.883	0.000	-2.510	-0.000	0.000
2674	2637	2638	2641	3	0.628	1.883	0.000	-2.510	-0.000	0.000
2682	2641	2638	2640	3	0.628	1.883	0.000	-2.510	-0.000	0.000
2676	2639	2638	2640	3	0.628	1.883	0.000	-2.510	-0.000	0.000
2675	2639	2638	2641	3	0.628	1.883	0.000	-2.510	-0.000	0.000
2682	2641	2638	2637	3	0.628	1.883	0.000	-2.510	-0.000	0.000
2673	2637	2638	2641	3	0.628	1.883	0.000	-2.510	-0.000	0.000
2680	2640	2638	2639	3	0.628	1.883	0.000	-2.510	-0.000	0.000
2681	2641	2638	2640	3	0.628	1.883	0.000	-2.510	-0.000	0.000
2680	2640	2638	2641	3	0.628	1.883	0.000	-2.510	-0.000	0.000
2649	2588	2587	2648	3	0.628	1.883	0.000	-2.510	-0.000	0.000
2650	2588	2587	2647	3	0.628	1.883	0.000	-2.510	-0.000	0.000
2649	2588	2587	2647	3	0.628	1.883	0.000	-2.510	-0.000	0.000
2650	2588	2587	2648	3	0.628	1.883	0.000	-2.510	-0.000	0.000
2650	2588	2587	2586	3	-4.096	5.088	2.966	-3.958	-0.000	0.000
2649	2588	2587	2586	3	-4.096	5.088	2.966	-3.958	-0.000	0.000
2648	2587	2588	2589	3	0.979	2.937	0.000	-3.916	-0.000	0.000
2647	2587	2588	2589	3	0.979	2.937	0.000	-3.916	-0.000	0.000
2648	2587	2586	2603	3	1.172	3.515	0.000	-4.686	-0.000	0.000
2644	2585	2586	2603	3	1.172	3.515	0.000	-4.686	-0.000	0.000
2647	2587	2586	2603	3	1.172	3.515	0.000	-4.686	-0.000	0.000
2645	2585	2586	2603	3	1.172	3.515	0.000	-4.686	-0.000	0.000
2646	2585	2586	2603	3	1.172	3.515	0.000	-4.686	-0.000	0.000
2647	2587	2586	2585	3	1.172	3.515	0.000	-4.686	-0.000	0.000
2645	2585	2586	2587	3	1.172	3.515	0.000	-4.686	-0.000	0.000
2648	2587	2586	2585	3	1.172	3.515	0.000	-4.686	-0.000	0.000
2646	2585	2586	2587	3	1.172	3.515	0.000	-4.686	-0.000	0.000
2644	2585	2586	2587	3	1.172	3.515	0.000	-4.686	-0.000	0.000
2649	2588	2589	2590	3	1.590	4.770	0.000	-6.360	-0.000	0.000
2650	2588	2589	2590	3	1.590	4.770	0.000	-6.360	-0.000	0.000
2655	2598	2597	2599	3	0.0	0.0	0.0	-0.0	-0.0	0.0
2655	2598	2597	2596	3	0.0	0.0	0.0	-0.0	-0.0	0.0
2598	2597	2596	2595	3	0.0	0.0	0.0	-0.0	-0.0	0.0
2625	2626	2615	2614	3	2.874	0.582	2.092	-5.548	-0.000	0.000
2625	2626	2615	2616	3	1.046	-1.046	0.000	-0.000	-0.000	0.000
2589	2588	2587	2586	3	16.736	-16.736	0.000	-0.000	-0.000	0.000
2625	2619	2616	2615	3	1.046	-1.046	0.000	-0.000	-0.000	0.000
2625	2619	2616	2617	3	9.079	0.000	-9.079	-0.000	-0.000	0.000
2694	2693	2692	2691	3	30.334	0.000	-30.334	-0.000	-0.000	0.000
2693	2701	2702	2690	3	30.334	0.000	-30.334	-0.000	-0.000	0.000
2693	2692	2691	2690	3	30.334	0.000	-30.334	-0.000	-0.000	0.000
2714	2713	2712	2711	3	21.738	2.408	-16.966	-7.180	-0.000	0.000
2710	2709	2708	2707	3	21.738	2.408	-16.966	-7.180	-0.000	0.000
2711	2710	2709	2708	3	21.738	2.408	-16.966	-7.180	-0.000	0.000
2712	2711	2710	2709	3	21.738	2.408	-16.966	-7.180	-0.000	0.000
2713	2712	2711	2710	3	21.738	2.408	-16.966	-7.180	-0.000	0.000
2709	2708	2707	2706	3	58.576	0.000	-58.576	-0.000	-0.000	0.000
2708	2707	2706	2705	3	16.027	-4.391	-14.029	2.393	-0.000	0.000
2707	2706	2705	2704	3	30.334	0.000	-30.334	-0.000	-0.000	0.000
2716	2715	2714	2713	3	58.576	0.000	-58.576	-0.000	-0.000	0.000
2701	2693	2694	2700	3	9.079	0.000	-9.079	-0.000	-0.000	0.000
2700	2694	2693	2692	3	9.079	0.000	-9.079	-0.000	-0.000	0.000
2701	2693	2694	2695	3	9.079	0.000	-9.079	-0.000	-0.000	0.000
2695	2694	2693	2692	3	9.079	0.000	-9.079	-0.000	-0.000	0.000
2700	2694	2695	2696	3	30.334	0.000	-30.334	-0.000	-0.000	0.000
2701	2693	2692	2691	3	30.334	0.000	-30.334	-0.000	-0.000	0.000
2699	2700	2694	2693	3	30.334	0.000	-30.334	-0.000	-0.000	0.000
2702	2701	2693	2694	3	30.334	0.000	-30.334	-0.000	-0.000	0.000
2696	2695	2694	2693	3	30.334	0.000	-30.334	-0.000	-0.000	0.000
2699	2700	2694	2695	3	30.334	0.000	-30.334	-0.000	-0.000	0.000
2702	2701	2693	2692	3	30.334	0.000	-30.334	-0.000	-0.000	0.000
2742	2706	2707	2708	3	16.027	-4.391	-14.029	2.393	-0.000	0.000
2697	2699	2700	2694	3	30.334	0.000	-30.334	-0.000	-0.000	0.000
2697	2696	2695	2694	3	30.334	0.000	-30.334	-0.000	-0.000	0.000
2743	2742	2706	2707	3	30.334	0.000	-30.334	-0.000	-0.000	0.000
2732	2727	2728	2729	3	30.334	0.000	-30.334	-0.000	-0.000	0.000
2743	2742	2706	2705	3	30.334	0.000	-30.334	-0.000	-0.000	0.000
2702	2690	2691	2692	3	30.334	0.000	-30.334	-0.000	-0.000	0.000
2742	2743	2703	2704	3	30.334	0.000	-30.334	-0.000	-0.000	0.000
2732	2731	2730	2729	3	30.334	0.000	-30.334	-0.000	-0.000	0.000
2731	2730	2729	2728	3	30.334	0.000	-30.334	-0.000	-0.000	0.000
2730	2729	2728	2727	3	30.334	0.000	-30.334	-0.000	-0.000	0.000
2706	2705	2704	2703	3	30.334	0.000	-30.334	-0.000	-0.000	0.000
2706	2742	2743	2703	3	30.334	0.000	-30.334	-0.000	-0.000	0.000
2743	2703	2704	2705	3	30.334	0.000	-30.334	-0.000	-0.000	0.000
2742	2706	2705	2704	3	30.334	0.000	-30.334	-0.000	-0.000	0.000
2731	2732	2727	2728	3	30.334	0.000	-30.334	-0.000	-0.000	0.000
2700	2699	2697	2696	3	30.334	0.000	-30.334	-0.000	-0.000	0.000
2701	2702	2690	2691	3	30.334	0.000	-30.334	-0.000	-0.000	0.000
2730	2731	2732	2727	3	30.334	0.000	-30.334	-0.000	-0.000	0.000
2699	2697	2696	2695	3	30.334	0.000	-30.334	-0.000	-0.000	0.000
2731	2732	2727	2726	3	30.334	0.000	-30.334	-0.000	-0.000	0.000
2729	2728	2727	2726	3	30.334	0.000	-30.334	-0.000	-0.000	0.000
2742	2743	2703	2686	3	30.334	0.000	-30.334	-0.000	-0.000	0.000
2705	2704	2703	2686	3	30.334	0.000	-30.334	-0.000	-0.000	0.000
2700	2699	2697	2698	3	0.0	0.0	0.0	-0.0	-0.0	0.0
2692	2691	2690	2689	3	30.334	0.000	-30.334	-0.000	-0.000	0.000
2701	2702	2690	2689	3	30.334	0.000	-30.334	-0.000	-0.000	0.000
2732	2727	2726	2715	3	0.000	0.000	0.000	-0.000	-0.000	0.000
2728	2727	2726	2715	3	0.000	0.000	0.000	-0.000	-0.000	0.000
2732	2727	2726	2725	3	0.000	0.000	0.000	-0.000	-0.000	0.000
2728	2727	2726	2725	3	0.000	0.000	0.000	-0.000	-0.000	0.000
2743	2703	2686	2687	3	5.184	35.932	-14.355	-26.761	-0.000	0.000
2704	2703	2686	2687	3	5.184	35.932	-14.355	-26.761	-0.000	0.000
2704	2703	2686	2685	3	5.184	35.932	-14.355	-26.761	-0.000	0.000
2743	2703	2686	2685	3	5.184	35.932	-14.355	-26.761	-0.000	0.000
2691	2690	2689	2688	3	12.552	0.000	-12.552	-0.000	-0.000	0.000
2702	2690	2689	2688	3	12.552	0.000	-12.552	-0.000	-0.000	0.000
2727	2726	2715	2714	3	6.322	-2.485	0.707	-4.544	-0.000	0.000
2727	2726	2715	2716	3	0.527	-6.397	-1.695	7.565	-0.000	0.000
2727	2726	2725	2719	3	1.715	2.845	1.046	-5.607	-0.000	0.000
2703	2686	2687	2688	3	1.789	3.492	0.536	-5.816	-0.000	0.000
2690	2689	2688	2687	3	1.715	2.845	1.046	-5.607	-0.000	0.000
2733	2726	2727	2728	3	0.000	0.000	0.000	-0.000	-0.000	0.000
2733	2726	2727	2732	3	0.000	0.000	0.000	-0.000	-0.000	0.000
2733	2726	2715	2714	3	6.322	-2.485	0.707	-4.544	-0.000	0.000
2733	2726	2715	2716	3	0.527	-6.397	-1.695	7.565	-0.000	0.000
2733	2726	2725	2719	3	1.715	2.845	1.046	-5.607	-0.000	0.000
2715	2714	2713	2712	3	21.738	2.408	-16.966	-7.180	-0.000	0.000
2720	2719	2716	2715	3	21.738	2.408	-16.966	-7.180	-0.000	0.000
2720	2719	2716	2717	3	-0.778	-2.335	0.000	3.113	-0.000	0.000
2741	2709	2708	2707	3	58.576	0.000	-58.576	-0.000	-0.000	0.000
2737	2711	2710	2709	3	58.576	0.000	-58.576	-0.000	-0.000	0.000
2741	2709	2710	2711	3	58.576	0.000	-58.576	-0.000	-0.000	0.000
2737	2711	2712	2713	3	58.576	0.000	-58.576	-0.000	-0.000	0.000
2726	2715	2714	2713	3	-0.778	-2.335	0.000	3.113	-0.000	0.000
2726	2715	2716	2719	3	58.576	0.000	-58.576	-0.000	-0.000	0.000
2726	2715	2716	2717	3	58.576	0.000	-58.576	-0.000	-0.000	0.000
2738	2741	2709	2708	3	0.527	-6.397	-1.695	7.565	-0.000	0.000
2738	2737	2711	2712	3	0.527	-6.397	-1.695	7.565	-0.000	0.000
2738	2737	2711	2710	3	0.527	-6.397	-1.695	7.565	-0.000	0.000
2738	2741	2709	2710	3	0.527	-6.397	-1.695	7.565	-0.000	0.000
2741	2738	2737	2711	3	2.301	-1.464	0.837	-1.674	-0.000	0.000
2740	2738	2741	2709	3	2.301	-1.464	0.837	-1.674	-0.000	0.000
2737	2738	2741	2709	3	2.301	-1.464	0.837	-1.674	-0.000	0.000
2739	2738	2741	2709	3	2.301	-1.464	0.837	-1.674	-0.000	0.000
2740	2738	2737	2711	3	2.301	-1.464	0.837	-1.674	-0.000	0.000
2739	2738	2737	2711	3	2.301	-1.464	0.837	-1.674	-0.000	0.000
2688	2687	2686	2685	3	1.789	3.492	0.536	-5.816	-0.000	0.000
2726	2725	2719	2716	3	30.334	0.000	-30.334	-0.000	-0.000	0.000
2726	2725	2719	2720	3	30.334	0.000	-30.334	-0.000	-0.000	0.000
2719	2716	2715	2714	3	58.576	0.000	-58.576	-0.000	-0.000	0.000
2719	2725	2726	2715	3	1.715	2.845	1.046	-5.607	-0.000	0.000
2717	2716	2715	2714	3	58.576	0.000	-58.576	-0.000	-0.000	0.000
2721	2720	2719	2716	3	58.576	0.000	-58.576	-0.000	-0.000	0.000
2723	2720	2719	2716	3	58.576	0.000	-58.576	-0.000	-0.000	0.000
2734	2733	2726	2727	3	0.000	0.000	0.000	-0.000	-0.000	0.000
2735	2733	2726	2727	3	0.000	0.000	0.000	-0.000	-0.000	0.000
2736	2733	2726	2727	3	0.000	0.000	0.000	-0.000	-0.000	0.000
2735	2733	2726	2715	3	0.000	0.000	0.000	-0.000	-0.000	0.000
2734	2733	2726	2715	3	0.000	0.000	0.000	-0.000	-0.000	0.000
2736	2733	2726	2715	3	0.000	0.000	0.000	-0.000	-0.000	0.000
2735	2733	2726	2725	3	1.130	3.389	0.000	-4.519	-0.000	0.000
2736	2733	2726	2725	3	1.130	3.389	0.000	-4.519	-0.000	0.000
2734	2733	2726	2725	3	1.130	3.389	0.000	-4.519	-0.000	0.000
2764	2710	2709	2708	3	58.576	0.000	-58.576	-0.000	-0.000	0.000
2764	2710	2711	2712	3	58.576	0.000	-58.576	-0.000	-0.000	0.000
2764	2710	2711	2737	3	58.576	0.000	-58.576	-0.000	-0.000	0.000
2764	2710	2709	2741	3	58.576	0.000	-58.576	-0.000	-0.000	0.000
2753	2695	2694	2693	3	30.334	0.000	-30.334	-0.000	-0.000	0.000
2752	2692	2693	2694	3	30.334	0.000	-30.334	-0.000	-0.000	0.000
2758	2701	2693	2694	3	30.334	0.000	-30.334	-0.000	-0.000	0.000
2757	2700	2694	2693	3	30.334	0.000	-30.334	-0.000	-0.000	0.000
2757	2700	2694	2695	3	30.334	0.000	-30.334	-0.000	-0.000	0.000
2753	2695	2694	2700	3	30.334	0.000	-30.334	-0.000	-0.000	0.000
2752	2692	2693	2701	3	30.334	0.000	-30.334	-0.000	-0.000	0.000
2758	2701	2693	2692	3	30.334	0.000	-30.334	-0.000	-0.000	0.000
2751	2691	2692	2693	3	30.334	0.000	-30.334	-0.000	-0.000	0.000
2759	2702	2701	2693	3	30.334	0.000	-30.334	-0.000	-0.000	0.000
2754	2696	2695	2694	3	30.334	0.000	-30.334	-0.000	-0.000	0.000
2756	2699	2700	2694	3	30.334	0.000	-30.334	-0.000	-0.000	0.000
2761	2705	2706	2707	3	30.334	0.000	-30.334	-0.000	-0.000	0.000
2783	2742	2706	2707	3	30.334	0.000	-30.334	-0.000	-0.000	0.000
2768	2728	2729	2730	3	30.334	0.000	-30.334	-0.000	-0.000	0.000
2756	2699	2697	2696	3	30.334	0.000	-30.334	-0.000	-0.000	0.000
2771	2731	2730	2729	3	30.334	0.000	-30.334	-0.000	-0.000	0.000
2783	2742	2743	2703	3	30.334	0.000	-30.334	-0.000	-0.000	0.000
2769	2729	2728	2727	3	30.334	0.000	-30.334	-0.000	-0.000	0.000
2784	2743	2742	2706	3	30.334	0.000	-30.334	-0.000	-0.000	0.000
2770	2730	2729	2728	3	30.334	0.000	-30.334	-0.000	-0.000	0.000
2759	2702	2690	2691	3	30.334	0.000	-30.334	-0.000	-0.000	0.000
2758	2701	2702	2690	3	30.334	0.000	-30.334	-0.000	-0.000	0.000
2783	2742	2706	2705	3	30.334	0.000	-30.334	-0.000	-0.000	0.000
2784	2743	2703	2704	3	30.334	0.000	-30.334	-0.000	-0.000	0.000
2771	2731	2732	2727	3	30.334	0.000	-30.334	-0.000	-0.000	0.000
2768	2728	2727	2732	3	30.334	0.000	-30.334	-0.000	-0.000	0.000
2753	2695	2696	2697	3	30.334	0.000	-30.334	-0.000	-0.000	0.000
2754	2696	2697	2699	3	30.334	0.000	-30.334	-0.000	-0.000	0.000
2751	2691	2690	2702	3	30.334	0.000	-30.334	-0.000	-0.000	0.000
2760	2704	2703	2743	3	30.334	0.000	-30.334	-0.000	-0.000	0.000
2760	2704	2705	2706	3	30.334	0.000	-30.334	-0.000	-0.000	0.000
2757	2700	2699	2697	3	30.334	0.000	-30.334	-0.000	-0.000	0.000
2761	2705	2706	2742	3	30.334	0.000	-30.334	-0.000	-0.000	0.000
2770	2730	2731	2732	3	30.334	0.000	-30.334	-0.000	-0.000	0.000
2772	2732	2731	2730	3	30.334	0.000	-30.334	-0.000	-0.000	0.000
2769	2729	2730	2731	3	30.334	0.000	-30.334	-0.000	-0.000	0.000
2772	2732	2727	2728	3	30.334	0.000	-30.334	-0.000	-0.000	0.000
2752	2692	2691	2690	3	30.334	0.000	-30.334	-0.000	-0.000	0.000
2761	2705	2704	2703	3	30.334	0.000	-30.334	-0.000	-0.000	0.000
2772	2732	2727	2726	3	30.334	0.000	-30.334	-0.000	-0.000	0.000
2768	2728	2727	2726	3	30.334	0.000	-30.334	-0.000	-0.000	0.000
2761	2705	2704	2760	3	30.334	0.000	-30.334	-0.000	-0.000	0.000
2784	2743	2742	2783	3	30.334	0.000	-30.334	-0.000	-0.000	0.000
2770	2730	2729	2769	3	30.334	0.000	-30.334	-0.000	-0.000	0.000
2754	2696	2695	2753	3	30.334	0.000	-30.334	-0.000	-0.000	0.000
2759	2702	2701	2758	3	30.334	0.000	-30.334	-0.000	-0.000	0.000
2757	2700	2699	2756	3	30.334	0.000	-30.334	-0.000	-0.000	0.000
2769	2729	2728	2768	3	30.334	0.000	-30.334	-0.000	-0.000	0.000
2752	2692	2691	2751	3	30.334	0.000	-30.334	-0.000	-0.000	0.000
2771	2731	2730	2770	3	30.334	0.000	-30.334	-0.000	-0.000	0.000
2772	2732	2731	2771	3	30.334	0.000	-30.334	-0.000	-0.000	0.000
2784	2743	2703	2686	3	30.334	0.000	-30.334	-0.000	-0.000	0.000
2760	2704	2703	2686	3	30.334	0.000	-30.334	-0.000	-0.000	0.000
2754	2696	2697	2698	3	0.0	0.0	0.0	-0.0	-0.0	0.0
2756	2699	2697	2698	3	0.0	0.0	0.0	-0.0	-0.0	0.0
2751	2691	2690	2689	3	30.334	0.000	-30.334	-0.000	-0.000	0.000
2759	2702	2690	2689	3	30.334	0.000	-30.334	-0.000	-0.000	0.000
2765	2712	2711	2710	3	58.576	0.000	-58.576	-0.000	-0.000	0.000
2765	2712	2713	2714	3	58.576	0.000	-58.576	-0.000	-0.000	0.000
2767	2714	2713	2712	3	58.576	0.000	-58.576	-0.000	-0.000	0.000
2766	2713	2712	2711	3	58.576	0.000	-58.576	-0.000	-0.000	0.000
2763	2708	2709	2710	3	58.576	0.000	-58.576	-0.000	-0.000	0.000
2762	2707	2708	2709	3	58.576	0.000	-58.576	-0.000	-0.000	0.000
2763	2708	2707	2706	3	58.576	0.000	-58.576	-0.000	-0.000	0.000
2766	2713	2714	2715	3	58.576	0.000	-58.576	-0.000	-0.000	0.000
2765	2712	2711	2737	3	58.576	0.000	-58.576	-0.000	-0.000	0.000
2763	2708	2709	2741	3	58.576	0.000	-58.576	-0.000	-0.000	0.000
2763	2708	2707	2762	3	58.576	0.000	-58.576	-0.000	-0.000	0.000
2766	2713	2712	2765	3	58.576	0.000	-58.576	-0.000	-0.000	0.000
2767	2714	2713	2766	3	58.576	0.000	-58.576	-0.000	-0.000	0.000
2762	2707	2706	2742	3	-0.778	-2.335	0.000	3.113	-0.000	0.000
2762	2707	2706	2705	3	-0.778	-2.335	0.000	3.113	-0.000	0.000
2767	2714	2715	2716	3	58.576	0.000	-58.576	-0.000	-0.000	0.000
2767	2714	2715	2726	3	58.576	0.000	-58.576	-0.000	-0.000	0.000
2781	2741	2709	2708	3	-0.778	-2.335	0.000	3.113	-0.000	0.000
2781	2741	2709	2710	3	-0.778	-2.335	0.000	3.113	-0.000	0.000
2782	2741	2709	2708	3	-0.778	-2.335	0.000	3.113	-0.000	0.000
2774	2737	2711	2712	3	-0.778	-2.335	0.000	3.113	-0.000	0.000
2782	2741	2709	2710	3	-0.778	-2.335	0.000	3.113	-0.000	0.000
2773	2737	2711	2710	3	-0.778	-2.335	0.000	3.113	-0.000	0.000
2774	2737	2711	2710	3	-0.778	-2.335	0.000	3.113	-0.000	0.000
2773	2737	2711	2712	3	-0.778	-2.335	0.000	3.113	-0.000	0.000
2776	2739	2738	2741	3	0.628	1.883	0.000	-2.510	-0.000	0.000
2775	2739	2738	2740	3	0.628	1.883	0.000	-2.510	-0.000	0.000
2775	2739	2738	2737	3	0.628	1.883	0.000	-2.510	-0.000	0.000
2777	2739	2738	2740	3	0.628	1.883	0.000	-2.510	-0.000	0.000
2779	2740	2738	2737	3	0.628	1.883	0.000	-2.510	-0.000	0.000
2778	2740	2738	2737	3	0.628	1.883	0.000	-2.510	-0.000	0.000
2777	2739	2738	2737	3	0.628	1.883	0.000	-2.510	-0.000	0.000
2779	2740	2738	2739	3	0.628	1.883	0.000	-2.510	-0.000	0.000
2776	2739	2738	2737	3	0.628	1.883	0.000	-2.510	-0.000	0.000
2781	2741	2738	2737	3	0.628	1.883	0.000	-2.510	-0.000	0.000
2781	2741	2738	2739	3	0.628	1.883	0.000	-2.510	-0.000	0.000
2774	2737	2738	2739	3	0.628	1.883	0.000	-2.510	-0.000	0.000
2777	2739	2738	2741	3	0.628	1.883	0.000	-2.510	-0.000	0.000
2774	2737	2738	2740	3	0.628	1.883	0.000	-2.510	-0.000	0.000
2782	2741	2738	2739	3	0.628	1.883	0.000	-2.510	-0.000	0.000
2778	2740	2738	2741	3	0.628	1.883	0.000	-2.510	-0.000	0.000
2779	2740	2738	2741	3	0.628	1.883	0.000	-2.510	-0.000	0.000
2780	2740	2738	2737	3	0.628	1.883	0.000	-2.510	-0.000	0.000
2773	2737	2738	2740	3	0.628	1.883	0.000	-2.510	-0.000	0.000
2773	2737	2738	2739	3	0.628	1.883	0.000	-2.510	-0.000	0.000
2778	2740	2738	2739	3	0.628	1.883	0.000	-2.510	-0.000	0.000
2774	2737	2738	2741	3	0.628	1.883	0.000	-2.510	-0.000	0.000
2782	2741	2738	2740	3	0.628	1.883	0.000	-2.510	-0.000	0.000
2776	2739	2738	2740	3	0.628	1.883	0.000	-2.510	-0.000	0.000
2775	2739	2738	2741	3	0.628	1.883	0.000	-2.510	-0.000	0.000
2782	2741	2738	2737	3	0.628	1.883	0.000	-2.510	-0.000	0.000
2773	2737	2738	2741	3	0.628	1.883	0.000	-2.510	-0.000	0.000
2780	2740	2738	2739	3	0.628	1.883	0.000	-2.510	-0.000	0.000
2781	2741	2738	2740	3	0.628	1.883	0.000	-2.510	-0.000	0.000
2780	2740	2738	2741	3	0.628	1.883	0.000	-2.510	-0.000	0.000
2749	2688	2687	2748	3	0.628	1.883	0.000	-2.510	-0.000	0.000
2750	2688	2687	2747	3	0.628	1.883	0.000	-2.510	-0.000	0.000
2749	2688	2687	2747	3	0.628	1.883	0.000	-2.510	-0.000	0.000
2750	2688	2687	2748	3	0.628	1.883	0.000	-2.510	-0.000	0.000
2750	2688	2687	2686	3	-4.096	5.088	2.966	-3.958	-0.000	0.000
2749	2688	2687	2686	3	-4.096	5.088	2.966	-3.958	-0.000	0.000
2748	2687	2688	2689	3	0.979	2.937	0.000	-3.916	-0.000	0.000
2747	2687	2688	2689	3	0.979	2.937	0.000	-3.916	-0.000	0.000
2748	2687	2686	2703	3	1.172	3.515	0.000	-4.686	-0.000	0.000
2744	2685	2686	2703	3	1.172	3.515	0.000	-4.686	-0.000	0.000
2747	2687	2686	2703	3	1.172	3.515	0.000	-4.686	-0.000	0.000
2745	2685	2686	2703	3	1.172	3.515	0.000	-4.686	-0.000	0.000
2746	2685	2686	2703	3	1.172	3.515	0.000	-4.686	-0.000	0.000
2747	2687	2686	2685	3	1.172	3.515	0.000	-4.686	-0.000	0.000
2745	2685	2686	2687	3	1.172	3.515	0.000	-4.686	-0.000	0.000
2748	2687	2686	2685	3	1.172	3.515	0.000	-4.686	-0.000	0.000
2746	2685	2686	2687	3	1.172	3.515	0.000	-4.686	-0.000	0.000
2744	2685	2686	2687	3	1.172	3.515	0.000	-4.686	-0.000	0.000
2749	2688	2689	2690	3	1.590	4.770	0.000	-6.360	-0.000	0.000
2750	2688	2689	2690	3	1.590	4.770	0.000	-6.360	-0.000	0.000
2755	2698	2697	2699	3	0.0	0.0	0.0	-0.0	-0.0	0.0
2755	2698	2697	2696	3	0.0	0.0	0.0	-0.0	-0.0	0.0
2698	2697	2696	2695	3	0.0	0.0	0.0	-0.0	-0.0	0.0
2725	2726	2715	2714	3	2.874	0.582	2.092	-5.548	-0.000	0.000
2725	2726	2715	2716	3	1.046	-1.046	0.000	-0.000	-0.000	0.000
2689	2688	2687	2686	3	16.736	-16.736	0.000	-0.000	-0.000	0.000
2725	2719	2716	2715	3	1.046	-1.046	0.000	-0.000	-0.000	0.000
2725	2719	2716	2717	3	9.079	0.000	-9.079	-0.000	-0.000	0.000
2794	2793	2792	2791	3	30.334	0.000	-30.334	-0.000	-0.000	0.000
2793	2801	2802	2790	3	30.334	0.000	-30.334	-0.000	-0.000	0.000
2793	2792	2791	2790	3	30.334	0.000	-30.334	-0.000	-0.000	0.000
2814	2813	2812	2811	3	21.738	2.408	-16.966	-7.180	-0.000	0.000
2810	2809	2808	2807	3	21.738	2.408	-16.966	-7.180	-0.000	0.000
2811	2810	2809	2808	3	21.738	2.408	-16.966	-7.180	-0.000	0.000
2812	2811	2810	2809	3	21.738	2.408	-16.966	-7.180	-0.000	0.000
2813	2812	2811	2810	3	21.738	2.408	-16.966	-7.180	-0.000	0.000
2809	2808	2807	2806	3	58.576	0.000	-58.576	-0.000	-0.000	0.000
2808	2807	2806	2805	3	16.027	-4.391	-14.029	2.393	-0.000	0.000
2807	2806	2805	2804	3	30.334	0.000	-30.334	-0.000	-0.000	0.000
2816	2815	2814	2813	3	58.576	0.000	-58.576	-0.000	-0.000	0.000
2801	2793	2794	2800	3	9.079	0.000	-9.079	-0.000	-0.000	0.000
2800	2794	2793	2792	3	9.079	0.000	-9.079	-0.000	-0.000	0.000
2801	2793	2794	2795	3	9.079	0.000	-9.079	-0.000	-0.000	0.000
2795	2794	2793	2792	3	9.079	0.000	-9.079	-0.000	-0.000	0.000
2800	2794	2795	2796	3	30.334	0.000	-30.334	-0.000	-0.000	0.000
2801	2793	2792	2791	3	30.334	0.000	-30.334	-0.000	-0.000	0.000
2799	2800	2794	2793	3	30.334	0.000	-30.334	-0.000	-0.000	0.000
2802	2801	2793	2794	3	30.334	0.000	-30.334	-0.000	-0.000	0.000
2796	2795	2794	2793	3	30.334	0.000	-30.334	-0.000	-0.000	0.000
2799	2800	2794	2795	3	30.334	0.000	-30.334	-0.000	-0.000	0.000
2802	2801	2793	2792	3	30.334	0.000	-30.334	-0.000	-0.000	0.000
2842	2806	2807	2808	3	16.027	-4.391	-14.029	2.393	-0.000	0.000
2797	2799	2800	2794	3	30.334	0.000	-30.334	-0.000	-0.000	0.000
2797	2796	2795	2794	3	30.334	0.000	-30.334	-0.000	-0.000	0.000
2843	2842	2806	2807	3	30.334	0.000	-30.334	-0.000	-0.000	0.000
2832	2827	2828	2829	3	30.334	0.000	-30.334	-0.000	-0.000	0.000
2843	2842	2806	2805	3	30.334	0.000	-30.334	-0.000	-0.000	0.000
2802	2790	2791	2792	3	30.334	0.000	-30.334	-0.000	-0.000	0.000
2842	2843	2803	2804	3	30.334	0.000	-30.334	-0.000	-0.000	0.000
2832	2831	2830	2829	3	30.334	0.000	-30.334	-0.000	-0.000	0.000
2831	2830	2829	2828	3	30.334	0.000	-30.334	-0.000	-0.000	0.000
2830	2829	2828	2827	3	30.334	0.000	-30.334	-0.000	-0.000	0.000
2806	2805	2804	2803	3	30.334	0.000	-30.334	-0.000	-0.000	0.000
2806	2842	2843	2803	3	30.334	0.000	-30.334	-0.000	-0.000	0.000
2843	2803	2804	2805	3	30.334	0.000	-30.334	-0.000	-0.000	0.000
2842	2806	2805	2804	3	30.334	0.000	-30.334	-0.000	-0.000	0.000
2831	2832	2827	2828	3	30.334	0.000	-30.334	-0.000	-0.000	0.000
2800	2799	2797	2796	3	30.334	0.000	-30.334	-0.000	-0.000	0.000
2801	2802	2790	2791	3	30.334	0.000	-30.334	-0.000	-0.000	0.000
2830	2831	2832	2827	3	30.334	0.000	-30.334	-0.000	-0.000	0.000
2799	2797	2796	2795	3	30.334	0.000	-30.334	-0.000	-0.000	0.000
2831	2832	2827	2826	3	30.334	0.000	-30.334	-0.000	-0.000	0.000
2829	2828	2827	2826	3	30.334	0.000	-30.334	-0.000	-0.000	0.000
2842	2843	2803	2786	3	30.334	0.000	-30.334	-0.000	-0.000	0.000
2805	2804	2803	2786	3	30.334	0.000	-30.334	-0.000	-0.000	0.000
2800	2799	2797	2798	3	0.0	0.0	0.0	-0.0	-0.0	0.0
2792	2791	2790	2789	3	30.334	0.000	-30.334	-0.000	-0.000	0.000
2801	2802	2790	2789	3	30.334	0.000	-30.334	-0.000	-0.000	0.000
2832	2827	2826	2815	3	0.000	0.000	0.000	-0.000	-0.000	0.000
2828	2827	2826	2815	3	0.000	0.000	0.000	-0.000	-0.000	0.000
2832	2827	2826	2825	3	0.000	0.000	0.000	-0.000	-0.000	0.000
2828	2827	2826	2825	3	0.000	0.000	0.000	-0.000	-0.000	0.000
2843	2803	2786	2787	3	5.184	35.932	-14.355	-26.761	-0.000	0.000
2804	2803	2786	2787	3	5.184	35.932	-14.355	-26.761	-0.000	0.000
2804	2803	2786	2785	3	5.184	35.932	-14.355	-26.761	-0.000	0.000
2843	2803	2786	2785	3	5.184	35.932	-14.355	-26.761	-0.000	0.000
2791	2790	2789	2788	3	12.552	0.000	-12.552	-0.000	-0.000	0.000
2802	2790	2789	2788	3	12.552	0.000	-12.552	-0.000	-0.000	0.000
2827	2826	2815	2814	3	6.322	-2.485	0.707	-4.544	-0.000	0.000
2827	2826	2815	2816	3	0.527	-6.397	-1.695	7.565	-0.000	0.000
2827	2826	2825	2819	3	1.715	2.845	1.046	-5.607	-0.000	0.000
2803	2786	2787	2788	3	1.789	3.492	0.536	-5.816	-0.000	0.000
2790	2789	2788	2787	3	1.715	2.845	1.046	-5.607	-0.000	0.000
2833	2826	2827	2828	3	0.000	0.000	0.000	-0.000	-0.000	0.000
2833	2826	2827	2832	3	0.000	0.000	0.000	-0.000	-0.000	0.000
2833	2826	2815	2814	3	6.322	-2.485	0.707	-4.544	-0.000	0.000
2833	2826	2815	2816	3	0.527	-6.397	-1.695	7.565	-0.000	0.000
2833	2826	2825	2819	3	1.715	2.845	1.046	-5.607	-0.000	0.000
2815	2814	2813	2812	3	21.738	2.408	-16.966	-7.180	-0.000	0.000
2820	2819	2816	2815	3	21.738	2.408	-16.966	-7.180	-0.000	0.000
2820	2819	2816	2817	3	-0.778	-2.335	0.000	3.113	-0.000	0.000
2841	2809	2808	2807	3	58.576	0.000	-58.576	-0.000	-0.000	0.000
2837	2811	2810	2809	3	58.576	0.000	-58.576	-0.000	-0.000	0.000
2841	2809	2810	2811	3	58.576	0.000	-58.576	-0.000	-0.000	0.000
2837	2811	2812	2813	3	58.576	0.000	-58.576	-0.000	-0.000	0.000
2826	2815	2814	2813	3	-0.778	-2.335	0.000	3.113	-0.000	0.000
2826	2815	2816	2819	3	58.576	0.000	-58.576	-0.000	-0.000	0.000
2826	2815	2816	2817	3	58.576	0.000	-58.576	-0.000	-0.000	0.000
2838	2841	2809	2808	3	0.527	-6.397	-1.695	7.565	-0.000	0.000
2838	2837	2811	2812	3	0.527	-6.397	-1.695	7.565	-0.000	0.000
2838	2837	2811	2810	3	0.527	-6.397	-1.695	7.565	-0.000	0.000
2838	2841	2809	2810	3	0.527	-6.397	-1.695	7.565	-0.000	0.000
2841	2838	2837	2811	3	2.301	-1.464	0.837	-1.674	-0.000	0.000
2840	2838	2841	2809	3	2.301	-1.464	0.837	-1.674	-0.000	0.000
2837	2838	2841	2809	3	2.301	-1.464	0.837	-1.674	-0.000	0.000
2839	2838	2841	2809	3	2.301	-1.464	0.837	-1.674	-0.000	0.000
2840	2838	2837	2811	3	2.301	-1.464	0.837	-1.674	-0.000	0.000
2839	2838	2837	2811	3	2.301	-1.464	0.837	-1.674	-0.000	0.000
2788	2787	2786	2785	3	1.789	3.492	0.536	-5.816	-0.000	0.000
2826	2825	2819	2816	3	30.334	0.000	-30.334	-0.000	-0.000	0.000
2826	2825	2819	2820	3	30.334	0.000	-30.334	-0.000	-0.000	0.000
2819	2816	2815	2814	3	58.576	0.000	-58.576	-0.000	-0.000	0.000
2819	2825	2826	2815	3	1.715	2.845	1.046	-5.607	-0.000	0.000
2817	2816	2815	2814	3	58.576	0.000	-58.576	-0.000	-0.000	0.000
2821	2820	2819	2816	3	58.576	0.000	-58.576	-0.000	-0.000	0.000
2823	2820	2819	2816	3	58.576	0.000	-58.576	-0.000	-0.000	0.000
2834	2833	2826	2827	3	0.000	0.000	0.000	-0.000	-0.000	0.000
2835	2833	2826	2827	3	0.000	0.000	0.000	-0.000	-0.000	0.000
2836	2833	2826	2827	3	0.000	0.000	0.000	-0.000	-0.000	0.000
2835	2833	2826	2815	3	0.000	0.000	0.000	-0.000	-0.000	0.000
2834	2833	2826	2815	3	0.000	0.000	0.000	-0.000	-0.000	0.000
2836	2833	2826	2815	3	0.000	0.000	0.000	-0.000	-0.000	0.000
2835	2833	2826	2825	3	1.130	3.389	0.000	-4.519	-0.000	0.000
2836	2833	2826	2825	3	1.130	3.389	0.000	-4.519	-0.000	0.000
2834	2833	2826	2825	3	1.130	3.389	0.000	-4.519	-0.000	0.000
2864	2810	2809	2808	3	58.576	0.000	-58.576	-0.000	-0.000	0.000
2864	2810	2811	2812	3	58.576	0.000	-58.576	-0.000	-0.000	0.000
2864	2810	2811	2837	3	58.576	0.000	-58.576	-0.000	-0.000	0.000
2864	2810	2809	2841	3	58.576	0.000	-58.576	-0.000	-0.000	0.000
2853	2795	2794	2793	3	30.334	0.000	-30.334	-0.000	-0.000	0.000
2852	2792	2793	2794	3	30.334	0.000	-30.334	-0.000	-0.000	0.000
2858	2801	2793	2794	3	30.334	0.000	-30.334	-0.000	-0.000	0.000
2857	2800	2794	2793	3	30.334	0.000	-30.334	-0.000	-0.000	0.000
2857	2800	2794	2795	3	30.334	0.000	-30.334	-0.000	-0.000	0.000
2853	2795	2794	2800	3	30.334	0.000	-30.334	-0.000	-0.000	0.000
2852	2792	2793	2801	3	30.334	0.000	-30.334	-0.000	-0.000	0.000
2858	2801	2793	2792	3	30.334	0.000	-30.334	-0.000	-0.000	0.000
2851	2791	2792	2793	3	30.334	0.000	-30.334	-0.000	-0.000	0.000
2859	2802	2801	2793	3	30.334	0.000	-30.334	-0.000	-0.000	0.000
2854	2796	2795	2794	3	30.334	0.000	-30.334	-0.000	-0.000	0.000
2856	2799	2800	2794	3	30.334	0.000	-30.334	-0.000	-0.000	0.000
2861	2805	2806	2807	3	30.334	0.000	-30.334	-0.000	-0.000	0.000
2883	2842	2806	2807	3	30.334	0.000	-30.334	-0.000	-0.000	0.000
2868	2828	2829	2830	3	30.334	0.000	-30.334	-0.000	-0.000	0.000
2856	2799	2797	2796	3	30.334	0.000	-30.334	-0.000	-0.000	0.000
2871	2831	2830	2829	3	30.334	0.000	-30.334	-0.000	-0.000	0.000
2883	2842	2843	2803	3	30.334	0.000	-30.334	-0.000	-0.000	0.000
2869	2829	2828	2827	3	30.334	0.000	-30.334	-0.000	-0.000	0.000
2884	2843	2842	2806	3	30.334	0.000	-30.334	-0.000	-0.000	0.000
2870	2830	2829	2828	3	30.334	0.000	-30.334	-0.000	-0.000	0.000
2859	2802	2790	2791	3	30.334	0.000	-30.334	-0.000	-0.000	0.000
2858	2801	2802	2790	3	30.334	0.000	-30.334	-0.000	-0.000	0.000
2883	2842	2806	2805	3	30.334	0.000	-30.334	-0.000	-0.000	0.000
2884	2843	2803	2804	3	30.334	0.000	-30.334	-0.000	-0.000	0.000
2871	2831	2832	2827	3	30.334	0.000	-30.334	-0.000	-0.000	0.000
2868	2828	2827	2832	3	30.334	0.000	-30.334	-0.000	-0.000	0.000
2853	2795	2796	2797	3	30.334	0.000	-30.334	-0.000	-0.000	0.000
2854	2796	2797	2799	3	30.334	0.000	-30.334	-0.000	-0.000	0.000
2851	2791	2790	2802	3	30.334	0.000	-30.334	-0.000	-0.000	0.000
2860	2804	2803	2843	3	30.334	0.000	-30.334	-0.000	-0.000	0.000
2860	2804	2805	2806	3	30.334	0.000	-30.334	-0.000	-0.000	0.000
2857	2800	2799	2797	3	30.334	0.000	-30.334	-0.000	-0.000	0.000
2861	2805	2806	2842	3	30.334	0.000	-30.334	-0.000	-0.000	0.000
2870	2830	2831	2832	3	30.334	0.000	-30.334	-0.000	-0.000	0.000
2872	2832	2831	2830	3	30.334	0.000	-30.334	-0.000	-0.000	0.000
2869	2829	2830	2831	3	30.334	0.000	-30.334	-0.000	-0.000	0.000
2872	2832	2827	2828	3	30.334	0.000	-30.334	-0.000	-0.000	0.000
2852	2792	2791	2790	3	30.334	0.000	-30.334	-0.000	-0.000	0.000
2861	2805	2804	2803	3	30.334	0.000	-30.334	-0.000	-0.000	0.000
2872	2832	2827	2826	3	30.334	0.000	-30.334	-0.000	-0.000	0.000
2868	2828	2827	2826	3	30.334	0.000	-30.334	-0.000	-0.000	0.000
2861	2805	2804	2860	3	30.334	0.000	-30.334	-0.000	-0.000	0.000
2884	2843	2842	2883	3	30.334	0.000	-30.334	-0.000	-0.000	0.000
2870	2830	2829	2869	3	30.334	0.000	-30.334	-0.000	-0.000	0.000
2854	2796	2795	2853	3	30.334	0.000	-30.334	-0.000	-0.000	0.000
2859	2802	2801	2858	3	30.334	0.000	-30.334	-0.000	-0.000	0.000
2857	2800	2799	2856	3	30.334	0.000	-30.334	-0.000	-0.000	0.000
2869	2829	2828	2868	3	30.334	0.000	-30.334	-0.000	-0.000	0.000
2852	2792	2791	2851	3	30.334	0.000	-30.334	-0.000	-0.000	0.000
2871	2831	2830	2870	3	30.334	0.000	-30.334	-0.000	-0.000	0.000
2872	2832	2831	2871	3	30.334	0.000	-30.334	-0.000	-0.000	0.000
2884	2843	2803	2786	3	30.334	0.000	-30.334	-0.000	-0.000	0.000
2860	2804	2803	2786	3	30.334	0.000	-30.334	-0.000	-0.000	0.000
2854	2796	2797	2798	3	0.0	0.0	0.0	-0.0	-0.0	0.0
2856	2799	2797	2798	3	0.0	0.0	0.0	-0.0	-0.0	0.0
2851	2791	2790	2789	3	30.334	0.000	-30.334	-0.000	-0.000	0.000
2859	2802	2790	2789	3	30.334	0.000	-30.334	-0.000	-0.000	0.000
2865	2812	2811	2810	3	58.576	0.000	-58.576	-0.000	-0.000	0.000
2865	2812	2813	2814	3	58.576	0.000	-58.576	-0.000	-0.000	0.000
2867	2814	2813	2812	3	58.576	0.000	-58.576	-0.000	-0.000	0.000
2866	2813	2812	2811	3	58.576	0.000	-58.576	-0.000	-0.000	0.000
2863	2808	2809	2810	3	58.576	0.000	-58.576	-0.000	-0.000	0.000
2862	2807	2808	2809	3	58.576	0.000	-58.576	-0.000	-0.000	0.000
2863	2808	2807	2806	3	58.576	0.000	-58.576	-0.000	-0.000	0.000
2866	2813	2814	2815	3	58.576	0.000	-58.576	-0.000	-0.000	0.000
2865	2812	2811	2837	3	58.576	0.000	-58.576	-0.000	-0.000	0.000
2863	2808	2809	2841	3	58.576	0.000	-58.576	-0.000	-0.000	0.000
2863	2808	2807	2862	3	58.576	0.000	-58.576	-0.000	-0.000	0.000
2866	2813	2812	2865	3	58.576	0.000	-58.576	-0.000	-0.000	0.000
2867	2814	2813	2866	3	58.576	0.000	-58.576	-0.000	-0.000	0.000
2862	2807	2806	2842	3	-0.778	-2.335	0.000	3.113	-0.000	0.000
2862	2807	2806	2805	3	-0.778	-2.335	0.000	3.113	-0.000	0.000
2867	2814	2815	2816	3	58.576	0.000	-58.576	-0.000	-0.000	0.000
2867	2814	2815	2826	3	58.576	0.000	-58.576	-0.000	-0.000	0.000
2881	2841	2809	2808	3	-0.778	-2.335	0.000	3.113	-0.000	0.000
2881	2841	2809	2810	3	-0.778	-2.335	0.000	3.113	-0.000	0.000
2882	2841	2809	2808	3	-0.778	-2.335	0.000	3.113	-0.000	0.000
2874	2837	2811	2812	3	-0.778	-2.335	0.000	3.113	-0.000	0.000
2882	2841	2809	2810	3	-0.778	-2.335	0.000	3.113	-0.000	0.000
2873	2837	2811	2810	3	-0.778	-2.335	0.000	3.113	-0.000	0.000
2874	2837	2811	2810	3	-0.778	-2.335	0.000	3.113	-0.000	0.000
2873	2837	2811	2812	3	-0.778	-2.335	0.000	3.113	-0.000	0.000
2876	2839	2838	2841	3	0.628	1.883	0.000	-2.510	-0.000	0.000
2875	2839	2838	2840	3	0.628	1.883	0.000	-2.510	-0.000	0.000
2875	2839	2838	2837	3	0.628	1.883	0.000	-2.510	-0.000	0.000
2877	2839	2838	2840	3	0.628	1.883	0.000	-2.510	-0.000	0.000
2879	2840	2838	2837	3	0.628	1.883	0.000	-2.510	-0.000	0.000
2878	2840	2838	2837	3	0.628	1.883	0.000	-2.510	-0.000	0.000
2877	2839	2838	2837	3	0.628	1.883	0.000	-2.510	-0.000	0.000
2879	2840	2838	2839	3	0.628	1.883	0.000	-2.510	-0.000	0.000
2876	2839	2838	2837	3	0.628	1.883	0.000	-2.510	-0.000	0.000
2881	2841	2838	2837	3	0.628	1.883	0.000	-2.510	-0.000	0.000
2881	2841	2838	2839	3	0.628	1.883	0.000	-2.510	-0.000	0.000
2874	2837	2838	2839	3	0.628	1.883	0.000	-2.510	-0.000	0.000
2877	2839	2838	2841	3	0.628	1.883	0.000	-2.510	-0.000	0.000
2874	2837	2838	2840	3	0.628	1.883	0.000	-2.510	-0.000	0.000
2882	2841	2838	2839	3	0.628	1.883	0.000	-2.510	-0.000	0.000
2878	2840	2838	2841	3	0.628	1.883	0.000	-2.510	-0.000	0.000
2879	2840	2838	2841	3	0.628	1.883	0.000	-2.510	-0.000	0.000
2880	2840	2838	2837	3	0.628	1.883	0.000	-2.510	-0.000	0.000
2873	2837	2838	2840	3	0.628	1.883	0.000	-2.510	-0.000	0.000
2873	2837	2838	2839	3	0.628	1.883	0.000	-2.510	-0.000	0.000
2878	2840	2838	2839	3	0.628	1.883	0.000	-2.510	-0.000	0.000
2874	2837	2838	2841	3	0.628	1.883	0.000	-2.510	-0.000	0.000
2882	2841	2838	2840	3	0.628	1.883	0.000	-2.510	-0.000	0.000
2876	2839	2838	2840	3	0.628	1.883	0.000	-2.510	-0.000	0.000
2875	2839	2838	2841	3	0.628	1.883	0.000	-2.510	-0.000	0.000
2882	2841	2838	2837	3	0.628	1.883	0.000	-2.510	-0.000	0.000
2873	2837	2838	2841	3	0.628	1.883	0.000	-2.510	-0.000	0.000
2880	2840	2838	2839	3	0.628	1.883	0.000	-2.510	-0.000	0.000
2881	2841	2838	2840	3	0.628	1.883	0.000	-2.510	-0.000	0.000
2880	2840	2838	2841	3	0.628	1.883	0.000	-2.510	-0.000	0.000
2849	2788	2787	2848	3	0.628	1.883	0.000	-2.510	-0.000	0.000
2850	2788	2787	2847	3	0.628	1.883	0.000	-2.510	-0.000	0.000
2849	2788	2787	2847	3	0.628	1.883	0.000	-2.510	-0.000	0.000
2850	2788	2787	2848	3	0.628	1.883	0.000	-2.510	-0.000	0.000
2850	2788	2787	2786	3	-4.096	5.088	2.966	-3.958	-0.000	0.000
2849	2788	2787	2786	3	-4.096	5.088	2.966	-3.958	-0.000	0.000
2848	2787	2788	2789	3	0.979	2.937	0.000	-3.916	-0.000	0.000
2847	2787	2788	2789	3	0.979	2.937	0.000	-3.916	-0.000	0.000
2848	2787	2786	2803	3	1.172	3.515	0.000	-4.686	-0.000	0.000
2844	2785	2786	2803	3	1.172	3.515	0.000	-4.686	-0.000	0.000
2847	2787	2786	2803	3	1.172	3.515	0.000	-4.686	-0.000	0.000
2845	2785	2786	2803	3	1.172	3.515	0.000	-4.686	-0.000	0.000
2846	2785	2786	2803	3	1.172	3.515	0.000	-4.686	-0.000	0.000
2847	2787	2786	2785	3	1.172	3.515	0.000	-4.686	-0.000	0.000
2845	2785	2786	2787	3	1.172	3.515	0.000	-4.686	-0.000	0.000
2848	2787	2786	2785	3	1.172	3.515	0.000	-4.686	-0.000	0.000
2846	2785	2786	2787	3	1.172	3.515	0.000	-4.686	-0.000	0.000
2844	2785	2786	2787	3	1.172	3.515	0.000	-4.686	-0.000	0.000
2849	2788	2789	2790	3	1.590	4.770	0.000	-6.360	-0.000	0.000
2850	2788	2789	2790	3	1.590	4.770	0.000	-6.360	-0.000	0.000
2855	2798	2797	2799	3	0.0	0.0	0.0	-0.0	-0.0	0.0
2855	2798	2797	2796	3	0.0	0.0	0.0	-0.0	-0.0	0.0
2798	2797	2796	2795	3	0.0	0.0	0.0	-0.0	-0.0	0.0
2825	2826	2815	2814	3	2.874	0.582	2.092	-5.548	-0.000	0.000
2825	2826	2815	2816	3	1.046	-1.046	0.000	-0.000	-0.000	0.000
2789	2788	2787	2786	3	16.736	-16.736	0.000	-0.000	-0.000	0.000
2825	2819	2816	2815	3	1.046	-1.046	0.000	-0.000	-0.000	0.000
2825	2819	2816	2817	3	9.079	0.000	-9.079	-0.000	-0.000	0.000
2894	2893	2892	2891	3	30.334	0.000	-30.334	-0.000	-0.000	0.000
2893	2901	2902	2890	3	30.334	0.000	-30.334	-0.000	-0.000	0.000
2893	2892	2891	2890	3	30.334	0.000	-30.334	-0.000	-0.000	0.000
2914	2913	2912	2911	3	21.738	2.408	-16.966	-7.180	-0.000	0.000
2910	2909	2908	2907	3	21.738	2.408	-16.966	-7.180	-0.000	0.000
2911	2910	2909	2908	3	21.738	2.408	-16.966	-7.180	-0.000	0.000
2912	2911	2910	2909	3	21.738	2.408	-16.966	-7.180	-0.000	0.000
2913	2912	2911	2910	3	21.738	2.408	-16.966	-7.180	-0.000	0.000
2909	2908	2907	2906	3	58.576	0.000	-58.576	-0.000	-0.000	0.000
2908	2907	2906	2905	3	16.027	-4.391	-14.029	2.393	-0.000	0.000
2907	2906	2905	2904	3	30.334	0.000	-30.334	-0.000	-0.000	0.000
2916	2915	2914	2913	3	58.576	0.000	-58.576	-0.000	-0.000	0.000
2901	2893	2894	2900	3	9.079	0.000	-9.079	-0.000	-0.000	0.000
2900	2894	2893	2892	3	9.079	0.000	-9.079	-0.000	-0.000	0.000
2901	2893	2894	2895	3	9.079	0.000	-9.079	-0.000	-0.000	0.000
2895	2894	2893	2892	3	9.079	0.000	-9.079	-0.000	-0.000	0.000
2900	2894	2895	2896	3	30.334	0.000	-30.334	-0.000	-0.000	0.000
2901	2893	2892	2891	3	30.334	0.000	-30.334	-0.000	-0.000	0.000
2899	2900	2894	2893	3	30.334	0.000	-30.334	-0.000	-0.000	0.000
2902	2901	2893	2894	3	30.334	0.000	-30.334	-0.000	-0.000	0.000
2896	2895	2894	2893	3	30.334	0.000	-30.334	-0.000	-0.000	0.000
2899	2900	2894	2895	3	30.334	0.000	-30.334	-0.000	-0.000	0.000
2902	2901	2893	2892	3	30.334	0.000	-30.334	-0.000	-0.000	0.000
2942	2906	2907	2908	3	16.027	-4.391	-14.029	2.393	-0.000	0.000
2897	2899	2900	2894	3	30.334	0.000	-30.334	-0.000	-0.000	0.000
2897	2896	2895	2894	3	30.334	0.000	-30.334	-0.000	-0.000	0.000
2943	2942	2906	2907	3	30.334	0.000	-30.334	-0.000	-0.000	0.000
2932	2927	2928	2929	3	30.334	0.000	-30.334	-0.000	-0.000	0.000
2943	2942	2906	2905	3	30.334	0.000	-30.334	-0.000	-0.000	0.000
2902	2890	2891	2892	3	30.334	0.000	-30.334	-0.000	-0.000	0.000
2942	2943	2903	2904	3	30.334	0.000	-30.334	-0.000	-0.000	0.000
2932	2931	2930	2929	3	30.334	0.000	-30.334	-0.000	-0.000	0.000
2931	2930	2929	2928	3	30.334	0.000	-30.334	-0.000	-0.000	0.000
2930	2929	2928	2927	3	30.334	0.000	-30.334	-0.000	-0.000	0.000
2906	2905	2904	2903	3	30.334	0.000	-30.334	-0.000	-0.000	0.000
2906	2942	2943	2903	3	30.334	0.000	-30.334	-0.000	-0.000	0.000
2943	2903	2904	2905	3	30.334	0.000	-30.334	-0.000	-0.000	0.000
2942	2906	2905	2904	3	30.334	0.000	-30.334	-0.000	-0.000	0.000
2931	2932	2927	2928	3	30.334	0.000	-30.334	-0.000	-0.000	0.000
2900	2899	2897	2896	3	30.334	0.000	-30.334	-0.000	-0.000	0.000
2901	2902	2890	2891	3	30.334	0.000	-30.334	-0.000	-0.000	0.000
2930	2931	2932	2927	3	30.334	0.000	-30.334	-0.000	-0.000	0.000
2899	2897	2896	2895	3	30.334	0.000	-30.334	-0.000	-0.000	0.000
2931	2932	2927	2926	3	30.334	0.000	-30.334	-0.000	-0.000	0.000
2929	2928	2927	2926	3	30.334	0.000	-30.334	-0.000	-0.000	0.000
2942	2943	2903	2886	3	30.334	0.000	-30.334	-0.000	-0.000	0.000
2905	2904	2903	2886	3	30.334	0.000	-30.334	-0.000	-0.000	0.000
2900	2899	2897	2898	3	0.0	0.0	0.0	-0.0	-0.0	0.0
2892	2891	2890	2889	3	30.334	0.000	-30.334	-0.000	-0.000	0.000
2901	2902	2890	2889	3	30.334	0.000	-30.334	-0.000	-0.000	0.000
2932	2927	2926	2915	3	0.000	0.000	0.000	-0.000	-0.000	0.000
2928	2927	2926	2915	3	0.000	0.000	0.000	-0.000	-0.000	0.000
2932	2927	2926	2925	3	0.000	0.000	0.000	-0.000	-0.000	0.000
2928	2927	2926	2925	3	0.000	0.000	0.000	-0.000	-0.000	0.000
2943	2903	2886	2887	3	5.184	35.932	-14.355	-26.761	-0.000	0.000
2904	2903	2886	2887	3	5.184	35.932	-14.355	-26.761	-0.000	0.000
2904	2903	2886	2885	3	5.184	35.932	-14.355	-26.761	-0.000	0.000
2943	2903	2886	2885	3	5.184	35.932	-14.355	-26.761	-0.000	0.000
2891	2890	2889	2888	3	12.552	0.000	-12.552	-0.000	-0.000	0.000
2902	2890	2889	2888	3	12.552	0.000	-12.552	-0.000	-0.000	0.000
2927	2926	2915	2914	3	6.322	-2.485	0.707	-4.544	-0.000	0.000
2927	2926	2915	2916	3	0.527	-6.397	-1.695	7.565	-0.000	0.000
2927	2926	2925	2919	3	1.715	2.845	1.046	-5.607	-0.000	0.000
2903	2886	2887	2888	3	1.789	3.492	0.536	-5.816	-0.000	0.000
2890	2889	2888	2887	3	1.715	2.845	1.046	-5.607	-0.000	0.000
2933	2926	2927	2928	3	0.000	0.000	0.000	-0.000	-0.000	0.000
2933	2926	2927	2932	3	0.000	0.000	0.000	-0.000	-0.000	0.000
2933	2926	2915	2914	3	6.322	-2.485	0.707	-4.544	-0.000	0.000
2933	2926	2915	2916	3	0.527	-6.397	-1.695	7.565	-0.000	0.000
2933	2926	2925	2919	3	1.715	2.845	1.046	-5.607	-0.000	0.000
2915	2914	2913	2912	3	21.738	2.408	-16.966	-7.180	-0.000	0.000
2920	2919	2916	2915	3	21.738	2.408	-16.966	-7.180	-0.000	0.000
2920	2919	2916	2917	3	-0.778	-2.335	0.000	3.113	-0.000	0.000
2941	2909	2908	2907	3	58.576	0.000	-58.576	-0.000	-0.000	0.000
2937	2911	2910	2909	3	58.576	0.000	-58.576	-0.000	-0.000	0.000
2941	2909	2910	2911	3	58.576	0.000	-58.576	-0.000	-0.000	0.000
2937	2911	2912	2913	3	58.576	0.000	-58.576	-0.000	-0.000	0.000
2926	2915	2914	2913	3	-0.778	-2.335	0.000	3.113	-0.000	0.000
2926	2915	2916	2919	3	58.576	0.000	-58.576	-0.000	-0.000	0.000
2926	2915	2916	2917	3	58.576	0.000	-58.576	-0.000	-0.000	0.000
2938	2941	2909	2908	3	0.527	-6.397	-1.695	7.565	-0.000	0.000
2938	2937	2911	2912	3	0.527	-6.397	-1.695	7.565	-0.000	0.000
2938	2937	2911	2910	3	0.527	-6.397	-1.695	7.565	-0.000	0.000
2938	2941	2909	2910	3	0.527	-6.397	-1.695	7.565	-0.000	0.000
2941	2938	2937	2911	3	2.301	-1.464	0.837	-1.674	-0.000	0.000
2940	2938	2941	2909	3	2.301	-1.464	0.837	-1.674	-0.000	0.000
2937	2938	2941	2909	3	2.301	-1.464	0.837	-1.674	-0.000	0.000
2939	2938	2941	2909	3	2.301	-1.464	0.837	-1.674	-0.000	0.000
2940	2938	2937	2911	3	2.301	-1.464	0.837	-1.674	-0.000	0.000
2939	2938	2937	2911	3	2.301	-1.464	0.837	-1.674	-0.000	0.000
2888	2887	2886	2885	3	1.789	3.492	0.536	-5.816	-0.000	0.000
2926	2925	2919	2916	3	30.334	0.000	-30.334	-0.000	-0.000	0.000
2926	2925	2919	2920	3	30.334	0.000	-30.334	-0.000	-0.000	0.000
2919	2916	2915	2914	3	58.576	0.000	-58.576	-0.000	-0.000	0.000
2919	2925	2926	2915	3	1.715	2.845	1.046	-5.607	-0.000	0.000
2917	2916	2915	2914	3	58.576	0.000	-58.576	-0.000	-0.000	0.000
2921	2920	2919	2916	3	58.576	0.000	-58.576	-0.000	-0.000	0.000
2923	2920	2919	2916	3	58.576	0.000	-58.576	-0.000	-0.000	0.000
2934	2933	2926	2927	3	0.000	0.000	0.000	-0.000	-0.000	0.000
2935	2933	2926	2927	3	0.000	0.000	0.000	-0.000	-0.000	0.000
2936	2933	2926	2927	3	0.000	0.000	0.000	-0.000	-0.000	0.000
2935	2933	2926	2915	3	0.000	0.000	0.000	-0.000	-0.000	0.000
2934	2933	2926	2915	3	0.000	0.000	0.000	-0.000	-0.000	0.000
2936	2933	2926	2915	3	0.000	0.000	0.000	-0.000	-0.000	0.000
2935	2933	2926	2925	3	1.130	3.389	0.000	-4.519	-0.000	0.000
2936	2933	2926	2925	3	1.130	3.389	0.000	-4.519	-0.000	0.000
2934	2933	2926	2925	3	1.130	3.389	0.000	-4.519	-0.000	0.000
2964	2910	2909	2908	3	58.576	0.000	-58.576	-0.000	-0.000	0.000
2964	2910	2911	2912	3	58.576	0.000	-58.576	-0.000	-0.000	0.000
2964	2910	2911	2937	3	58.576	0.000	-58.576	-0.000	-0.000	0.000
2964	2910	2909	2941	3	58.576	0.000	-58.576	-0.000	-0.000	0.000
2953	2895	2894	2893	3	30.334	0.000	-30.334	-0.000	-0.000	0.000
2952	2892	2893	2894	3	30.334	0.000	-30.334	-0.000	-0.000	0.000
2958	2901	2893	2894	3	30.334	0.000	-30.334	-0.000	-0.000	0.000
2957	2900	2894	2893	3	30.334	0.000	-30.334	-0.000	-0.000	0.000
2957	2900	2894	2895	3	30.334	0.000	-30.334	-0.000	-0.000	0.000
2953	2895	2894	2900	3	30.334	0.000	-30.334	-0.000	-0.000	0.000
2952	2892	2893	2901	3	30.334	0.000	-30.334	-0.000	-0.000	0.000
2958	2901	2893	2892	3	30.334	0.000	-30.334	-0.000	-0.000	0.000
2951	2891	2892	2893	3	30.334	0.000	-30.334	-0.000	-0.000	0.000
2959	2902	2901	2893	3	30.334	0.000	-30.334	-0.000	-0.000	0.000
2954	2896	2895	2894	3	30.334	0.000	-30.334	-0.000	-0.000	0.000
2956	2899	2900	2894	3	30.334	0.000	-30.334	-0.000	-0.000	0.000
2961	2905	2906	2907	3	30.334	0.000	-30.334	-0.000	-0.000	0.000
2983	2942	2906	2907	3	30.334	0.000	-30.334	-0.000	-0.000	0.000
2968	2928	2929	2930	3	30.334	0.000	-30.334	-0.000	-0.000	0.000
2956	2899	2897	2896	3	30.334	0.000	-30.334	-0.000	-0.000	0.000
2971	2931	2930	2929	3	30.334	0.000	-30.334	-0.000	-0.000	0.000
2983	2942	2943	2903	3	30.334	0.000	-30.334	-0.000	-0.000	0.000
2969	2929	2928	2927	3	30.334	0.000	-30.334	-0.000	-0.000	0.000
2984	2943	2942	2906	3	30.334	0.000	-30.334	-0.000	-0.000	0.000
2970	2930	2929	2928	3	30.334	0.000	-30.334	-0.000	-0.000	0.000
2959	2902	2890	2891	3	30.334	0.000	-30.334	-0.000	-0.000	0.000
2958	2901	2902	2890	3	30.334	0.000	-30.334	-0.000	-0.000	0.000
2983	2942	2906	2905	3	30.334	0.000	-30.334	-0.000	-0.000	0.000
2984	2943	2903	2904	3	30.334	0.000	-30.334	-0.000	-0.000	0.000
2971	2931	2932	2927	3	30.334	0.000	-30.334	-0.000	-0.000	0.000
2968	2928	2927	2932	3	30.334	0.000	-30.334	-0.000	-0.000	0.000
2953	2895	2896	2897	3	30.334	0.000	-30.334	-0.000	-0.000	0.000
2954	2896	2897	2899	3	30.334	0.000	-30.334	-0.000	-0.000	0.000
2951	2891	2890	2902	3	30.334	0.000	-30.334	-0.000	-0.000	0.000
2960	2904	2903	2943	3	30.334	0.000	-30.334	-0.000	-0.000	0.000
2960	2904	2905	2906	3	30.334	0.000	-30.334	-0.000	-0.000	0.000
2957	2900	2899	2897	3	30.334	0.000	-30.334	-0.000	-0.000	0.000
2961	2905	2906	2942	3	30.334	0.000	-30.334	-0.000	-0.000	0.000
2970	2930	2931	2932	3	30.334	0.000	-30.334	-0.000	-0.000	0.000
2972	2932	2931	2930	3	30.334	0.000	-30.334	-0.000	-0.000	0.000
2969	2929	2930	2931	3	30.334	0.000	-30.334	-0.000	-0.000	0.000
2972	2932	2927	2928	3	30.334	0.000	-30.334	-0.000	-0.000	0.000
2952	2892	2891	2890	3	30.334	0.000	-30.334	-0.000	-0.000	0.000
2961	2905	2904	2903	3	30.334	0.000	-30.334	-0.000	-0.000	0.000
2972	2932	2927	2926	3	30.334	0.000	-30.334	-0.000	-0.000	0.000
2968	2928	2927	2926	3	30.334	0.000	-30.334	-0.000	-0.000	0.000
2961	2905	2904	2960	3	30.334	0.000	-30.334	-0.000	-0.000	0.000
2984	2943	2942	2983	3	30.334	0.000	-30.334	-0.000	-0.000	0.000
2970	2930	2929	2969	3	30.334	0.000	-30.334	-0.000	-0.000	0.000
2954	2896	2895	2953	3	30.334	0.000	-30.334	-0.000	-0.000	0.000
2959	2902	2901	2958	3	30.334	0.000	-30.334	-0.000	-0.000	0.000
2957	2900	2899	2956	3	30.334	0.000	-30.334	-0.000	-0.000	0.000
2969	2929	2928	2968	3	30.334	0.000	-30.334	-0.000	-0.000	0.000
2952	2892	2891	2951	3	30.334	0.000	-30.334	-0.000	-0.000	0.000
2971	2931	2930	2970	3	30.334	0.000	-30.334	-0.000	-0.000	0.000
2972	2932	2931	2971	3	30.334	0.000	-30.334	-0.000	-0.000	0.000
2984	2943	2903	2886	3	30.334	0.000	-30.334	-0.000	-0.000	0.000
2960	2904	2903	2886	3	30.334	0.000	-30.334	-0.000	-0.000	0.000
2954	2896	2897	2898	3	0.0	0.0	0.0	-0.0	-0.0	0.0
2956	2899	2897	2898	3	0.0	0.0	0.0	-0.0	-0.0	0.0
2951	2891	2890	2889	3	30.334	0.000	-30.334	-0.000	-0.000	0.000
2959	2902	2890	2889	3	30.334	0.000	-30.334	-0.000	-0.000	0.000
2965	2912	2911	2910	3	58.576	0.000	-58.576	-0.000	-0.000	0.000
2965	2912	2913	2914	3	58.576	0.000	-58.576	-0.000	-0.000	0.000
2967	2914	2913	2912	3	58.576	0.000	-58.576	-0.000	-0.000	0.000
2966	2913	2912	2911	3	58.576	0.000	-58.576	-0.000	-0.000	0.000
2963	2908	2909	2910	3	58.576	0.000	-58.576	-0.000	-0.000	0.000
2962	2907	2908	2909	3	58.576	0.000	-58.576	-0.000	-0.000	0.000
2963	2908	2907	2906	3	58.576	0.000	-58.576	-0.000	-0.000	0.000
2966	2913	2914	2915	3	58.576	0.000	-58.576	-0.000	-0.000	0.000
2965	2912	2911	2937	3	58.576	0.000	-58.576	-0.000	-0.000	0.000
2963	2908	2909	2941	3	58.576	0.000	-58.576	-0.000	-0.000	0.000
2963	2908	2907	2962	3	58.576	0.000	-58.576	-0.000	-0.000	0.000
2966	2913	2912	2965	3	58.576	0.000	-58.576	-0.000	-0.000	0.000
2967	2914	2913	2966	3	58.576	0.000	-58.576	-0.000	-0.000	0.000
2962	2907	2906	2942	3	-0.778	-2.335	0.000	3.113	-0.000	0.000
2962	2907	2906	2905	3	-0.778	-2.335	0.000	3.113	-0.000	0.000
2967	2914	2915	2916	3	58.576	0.000	-58.576	-0.000	-0.000	0.000
2967	2914	2915	2926	3	58.576	0.000	-58.576	-0.000	-0.000	0.000
2981	2941	2909	2908	3	-0.778	-2.335	0.000	3.113	-0.000	0.000
2981	2941	2909	2910	3	-0.778	-2.335	0.000	3.113	-0.000	0.000
2982	2941	2909	2908	3	-0.778	-2.335	0.000	3.113	-0.000	0.000
2974	2937	2911	2912	3	-0.778	-2.335	0.000	3.113	-0.000	0.000
2982	2941	2909	2910	3	-0.778	-2.335	0.000	3.113	-0.000	0.000
2973	2937	2911	2910	3	-0.778	-2.335	0.000	3.113	-0.000	0.000
2974	2937	2911	2910	3	-0.778	-2.335	0.000	3.113	-0.000	0.000
2973	2937	2911	2912	3	-0.778	-2.335	0.000	3.113	-0.000	0.000
2976	2939	2938	2941	3	0.628	1.883	0.000	-2.510	-0.000	0.000
2975	2939	2938	2940	3	0.628	1.883	0.000	-2.510	-0.000	0.000
2975	2939	2938	2937	3	0.628	1.883	0.000	-2.510	-0.000	0.000
2977	2939	2938	2940	3	0.628	1.883	0.000	-2.510	-0.000	0.000
2979	2940	2938	2937	3	0.628	1.883	0.000	-2.510	-0.000	0.000
2978	2940	2938	2937	3	0.628	1.883	0.000	-2.510	-0.000	0.000
2977	2939	2938	2937	3	0.628	1.883	0.000	-2.510	-0.000	0.000
2979	2940	2938	2939	3	0.628	1.883	0.000	-2.510	-0.000	0.000
2976	2939	2938	2937	3	0.628	1.883	0.000	-2.510	-0.000	0.000
2981	2941	2938	2937	3	0.628	1.883	0.000	-2.510	-0.000	0.000
2981	2941	2938	2939	3	0.628	1.883	0.000	-2.510	-0.000	0.000
2974	2937	2938	2939	3	0.628	1.883	0.000	-2.510	-0.000	0.000
2977	2939	2938	2941	3	0.628	1.883	0.000	-2.510	-0.000	0.000
2974	2937	2938	2940	3	0.628	1.883	0.000	-2.510	-0.000	0.000
2982	2941	2938	2939	3	0.628	1.883	0.000	-2.510	-0.000	0.000
2978	2940	2938	2941	3	0.628	1.883	0.000	-2.510	-0.000	0.000
2979	2940	2938	2941	3	0.628	1.883	0.000	-2.510	-0.000	0.000
2980	2940	2938	2937	3	0.628	1.883	0.000	-2.510	-0.000	0.000
2973	2937	2938	2940	3	0.628	1.883	0.000	-2.510	-0.000	0.000
2973	2937	2938	2939	3	0.628	1.883	0.000	-2.510	-0.000	0.000
2978	2940	2938	2939	3	0.628	1.883	0.000	-2.510	-0.000	0.000
2974	2937	2938	2941	3	0.628	1.883	0.000	-2.510	-0.000	0.000
2982	2941	2938	2940	3	0.628	1.883	0.000	-2.510	-0.000	0.000
2976	2939	2938	2940	3	0.628	1.883	0.000	-2.510	-0.000	0.000
2975	2939	2938	2941	3	0.628	1.883	0.000	-2.510	-0.000	0.000
2982	2941	2938	2937	3	0.628	1.883	0.000	-2.510	-0.000	0.000
2973	2937	2938	2941	3	0.628	1.883	0.000	-2.510	-0.000	0.000
2980	2940	2938	2939	3	0.628	1.883	0.000	-2.510	-0.000	0.000
2981	2941	2938	2940	3	0.628	1.883	0.000	-2.510	-0.000	0.000
2980	2940	2938	2941	3	0.628	1.883	0.000	-2.510	-0.000	0.000
2949	2888	2887	2948	3	0.628	1.883	0.000	-2.510	-0.000	0.000
2950	2888	2887	2947	3	0.628	1.883	0.000	-2.510	-0.000	0.000
2949	2888	2887	2947	3	0.628	1.883	0.000	-2.510	-0.000	0.000
2950	2888	2887	2948	3	0.628	1.883	0.000	-2.510	-0.000	0.000
2950	2888	2887	2886	3	-4.096	5.088	2.966	-3.958	-0.000	0.000
2949	2888	2887	2886	3	-4.096	5.088	2.966	-3.958	-0.000	0.000
2948	2887	2888	2889	3	0.979	2.937	0.000	-3.916	-0.000	0.000
2947	2887	2888	2889	3	0.979	2.937	0.000	-3.916	-0.000	0.000
2948	2887	2886	2903	3	1.172	3.515	0.000	-4.686	-0.000	0.000
2944	2885	2886	2903	3	1.172	3.515	0.000	-4.686	-0.000	0.000
2947	2887	2886	2903	3	1.172	3.515	0.000	-4.686	-0.000	0.000
2945	2885	2886	2903	3	1.172	3.515	0.000	-4.686	-0.000	0.000
2946	2885	2886	2903	3	1.172	3.515	0.000	-4.686	-0.000	0.000
2947	2887	2886	2885	3	1.172	3.515	0.000	-4.686	-0.000	0.000
2945	2885	2886	2887	3	1.172	3.515	0.000	-4.686	-0.000	0.000
2948	2887	2886	2885	3	1.172	3.515	0.000	-4.686	-0.000	0.000
2946	2885	2886	2887	3	1.172	3.515	0.000	-4.686	-0.000	0.000
2944	2885	2886	2887	3	1.172	3.515	0.000	-4.686	-0.000	0.000
2949	2888	2889	2890	3	1.590	4.770	0.000	-6.360	-0.000	0.000
2950	2888	2889	2890	3	1.590	4.770	0.000	-6.360	-0.000	0.000
2955	2898	2897	2899	3	0.0	0.0	0.0	-0.0	-0.0	0.0
2955	2898	2897	2896	3	0.0	0.0	0.0	-0.0	-0.0	0.0
2898	2897	2896	2895	3	0.0	0.0	0.0	-0.0	-0.0	0.0
2925	2926	2915	2914	3	2.874	0.582	2.092	-5.548	-0.000	0.000
2925	2926	2915	2916	3	1.046	-1.046	0.000	-0.000	-0.000	0.000
2889	2888	2887	2886	3	16.736	-16.736	0.000	-0.000	-0.000	0.000
2925	2919	2916	2915	3	1.046	-1.046	0.000	-0.000	-0.000	0.000
2925	2919	2916	2917	3	9.079	0.000	-9.079	-0.000	-0.000	0.000
2994	2993	2992	2991	3	30.334	0.000	-30.334	-0.000	-0.000	0.000
2993	3001	3002	2990	3	30.334	0.000	-30.334	-0.000	-0.000	0.000
2993	2992	2991	2990	3	30.334	0.000	-30.334	-0.000	-0.000	0.000
3014	3013	3012	3011	3	21.738	2.408	-16.966	-7.180	-0.000	0.000
3010	3009	3008	3007	3	21.738	2.408	-16.966	-7.180	-0.000	0.000
3011	3010	3009	3008	3	21.738	2.408	-16.966	-7.180	-0.000	0.000
3012	3011	3010	3009	3	21.738	2.408	-16.966	-7.180	-0.000	0.000
3013	3012	3011	3010	3	21.738	2.408	-16.966	-7.180	-0.000	0.000
3009	3008	3007	3006	3	58.576	0.000	-58.576	-0.000	-0.000	0.000
3008	3007	3006	3005	3	16.027	-4.391	-14.029	2.393	-0.000	0.000
3007	3006	3005	3004	3	30.334	0.000	-30.334	-0.000	-0.000	0.000
3016	3015	3014	3013	3	58.576	0.000	-58.576	-0.000	-0.000	0.000
3001	2993	2994	3000	3	9.079	0.000	-9.079	-0.000	-0.000	0.000
3000	2994	2993	2992	3	9.079	0.000	-9.079	-0.000	-0.000	0.000
3001	2993	2994	2995	3	9.079	0.000	-9.079	-0.000	-0.000	0.000
2995	2994	2993	2992	3	9.079	0.000	-9.079	-0.000	-0.000	0.000
3000	2994	2995	2996	3	30.334	0.000	-30.334	-0.000	-0.000	0.000
3001	2993	2992	2991	3	30.334	0.000	-30.334	-0.000	-0.000	0.000
2999	3000	2994	2993	3	30.334	0.000	-30.334	-0.000	-0.000	0.000
3002	3001	2993	2994	3	30.334	0.000	-30.334	-0.000	-0.000	0.000
2996	2995	2994	2993	3	30.334	0.000	-30.334	-0.000	-0.000	0.000
2999	3000	2994	2995	3	30.334	0.000	-30.334	-0.000	-0.000	0.000
3002	3001	2993	2992	3	30.334	0.000	-30.334	-0.000	-0.000	0.000
3042	3006	3007	3008	3	16.027	-4.391	-14.029	2.393	-0.000	0.000
2997	2999	3000	2994	3	30.334	0.000	-30.334	-0.000	-0.000	0.000
2997	2996	2995	2994	3	30.334	0.000	-30.334	-0.000	-0.000	0.000
3043	3042	3006	3007	3	30.334	0.000	-30.334	-0.000	-0.000	0.000
3032	3027	3028	3029	3	30.334	0.000	-30.334	-0.000	-0.000	0.000
3043	3042	3006	3005	3	30.334	0.000	-30.334	-0.000	-0.000	0.000
3002	2990	2991	2992	3	30.334	0.000	-30.334	-0.000	-0.000	0.000
3042	3043	3003	3004	3	30.334	0.000	-30.334	-0.000	-0.000	0.000
3032	3031	3030	3029	3	30.334	0.000	-30.334	-0.000	-0.000	0.000
3031	3030	3029	3028	3	30.334	0.000	-30.334	-0.000	-0.000	0.000
3030	3029	3028	3027	3	30.334	0.000	-30.334	-0.000	-0.000	0.000
3006	3005	3004	3003	3	30.334	0.000	-30.334	-0.000	-0.000	0.000
3006	3042	3043	3003	3	30.334	0.000	-30.334	-0.000	-0.000	0.000
3043	3003	3004	3005	3	30.334	0.000	-30.334	-0.000	-0.000	0.000
3042	3006	3005	3004	3	30.334	0.000	-30.334	-0.000	-0.000	0.000
3031	3032	3027	3028	3	30.334	0.000	-30.334	-0.000	-0.000	0.000
3000	2999	2997	2996	3	30.334	0.000	-30.334	-0.000	-0.000	0.000
3001	3002	2990	2991	3	30.334	0.000	-30.334	-0.000	-0.000	0.000
3030	3031	3032	3027	3	30.334	0.000	-30.334	-0.000	-0.000	0.000
2999	2997	2996	2995	3	30.334	0.000	-30.334	-0.000	-0.000	0.000
3031	3032	3027	3026	3	30.334	0.000	-30.334	-0.000	-0.000	0.000
3029	3028	3027	3026	3	30.334	0.000	-30.334	-0.000	-0.000	0.000
3042	3043	3003	2986	3	30.334	0.000	-30.334	-0.000	-0.000	0.000
3005	3004	3003	2986	3	30.334	0.000	-30.334	-0.000	-0.000	0.000
3000	2999	2997	2998	3	0.0	0.0	0.0	-0.0	-0.0	0.0
2992	2991	2990	2989	3	30.334	0.000	-30.334	-0.000	-0.000	0.000
3001	3002	2990	2989	3	30.334	0.000	-30.334	-0.000	-0.000	0.000
3032	3027	3026	3015	3	0.000	0.000	0.000	-0.000	-0.000	0.000
3028	3027	3026	3015	3	0.000	0.000	0.000	-0.000	-0.000	0.000
3032	3027	3026	3025	3	0.000	0.000	0.000	-0.000	-0.000	0.000
3028	3027	3026	3025	3	0.000	0.000	0.000	-0.000	-0.000	0.000
3043	3003	2986	2987	3	5.184	35.932	-14.355	-26.761	-0.000	0.000
3004	3003	2986	2987	3	5.184	35.932	-14.355	-26.761	-0.000	0.000
3004	3003	2986	2985	3	5.184	35.932	-14.355	-26.761	-0.000	0.000
3043	3003	2986	2985	3	5.184	35.932	-14.355	-26.761	-0.000	0.000
2991	2990	2989	2988	3	12.552	0.000	-12.552	-0.000	-0.000	0.000
3002	2990	2989	2988	3	12.552	0.000	-12.552	-0.000	-0.000	0.000
3027	3026	3015	3014	3	6.322	-2.485	0.707	-4.544	-0.000	0.000
3027	3026	3015	3016	3	0.527	-6.397	-1.695	7.565	-0.000	0.000
3027	3026	3025	3019	3	1.715	2.845	1.046	-5.607	-0.000	0.000
3003	2986	2987	2988	3	1.789	3.492	0.536	-5.816	-0.000	0.000
2990	2989	2988	2987	3	1.715	2.845	1.046	-5.607	-0.000	0.000
3033	3026	3027	3028	3	0.000	0.000	0.000	-0.000	-0.000	0.000
3033	3026	3027	3032	3	0.000	0.000	0.000	-0.000	-0.000	0.000
3033	3026	3015	3014	3	6.322	-2.485	0.707	-4.544	-0.000	0.000
3033	3026	3015	3016	3	0.527	-6.397	-1.695	7.565	-0.000	0.000
3033	3026	3025	3019	3	1.715	2.845	1.046	-5.607	-0.000	0.000
3015	3014	3013	3012	3	21.738	2.408	-16.966	-7.180	-0.000	0.000
3020	3019	3016	3015	3	21.738	2.408	-16.966	-7.180	-0.000	0.000
3020	3019	3016	3017	3	-0.778	-2.335	0.000	3.113	-0.000	0.000
3041	3009	3008	3007	3	58.576	0.000	-58.576	-0.000	-0.000	0.000
3037	3011	3010	3009	3	58.576	0.000	-58.576	-0.000	-0.000	0.000
3041	3009	3010	3011	3	58.576	0.000	-58.576	-0.000	-0.000	0.000
3037	3011	3012	3013	3	58.576	0.000	-58.576	-0.000	-0.000	0.000
3026	3015	3014	3013	3	-0.778	-2.335	0.000	3.113	-0.000	0.000
3026	3015	3016	3019	3	58.576	0.000	-58.576	-0.000	-0.000	0.000
3026	3015	3016	3017	3	58.576	0.000	-58.576	-0.000	-0.000	0.000
3038	3041	3009	3008	3	0.527	-6.397	-1.695	7.565	-0.000	0.000
3038	3037	3011	3012	3	0.527	-6.397	-1.695	7.565	-0.000	0.000
3038	3037	3011	3010	3	0.527	-6.397	-1.695	7.565	-0.000	0.000
3038	3041	3009	3010	3	0.527	-6.397	-1.695	7.565	-0.000	0.000
3041	3038	3037	3011	3	2.301	-1.464	0.837	-1.674	-0.000	0.000
3040	3038	3041	3009	3	2.301	-1.464	0.837	-1.674	-0.000	0.000
3037	3038	3041	3009	3	2.301	-1.464	0.837	-1.674	-0.000	0.000
3039	3038	3041	3009	3	2.301	-1.464	0.837	-1.674	-0.000	0.000
3040	3038	3037	3011	3	2.301	-1.464	0.837	-1.674	-0.000	0.000
3039	3038	3037	3011	3	2.301	-1.464	0.837	-1.674	-0.000	0.000
2988	2987	2986	2985	3	1.789	3.492	0.536	-5.816	-0.000	0.000
3026	3025	3019	3016	3	30.334	0.000	-30.334	-0.000	-0.000	0.000
3026	3025	3019	3020	3	30.334	0.000	-30.334	-0.000	-0.000	0.000
3019	3016	3015	3014	3	58.576	0.000	-58.576	-0.000	-0.000	0.000
3019	3025	3026	3015	3	1.715	2.845	1.046	-5.607	-0.000	0.000
3017	3016	3015	3014	3	58.576	0.000	-58.576	-0.000	-0.000	0.000
3021	3020	3019	3016	3	58.576	0.000	-58.576	-0.000	-0.000	0.000
3023	3020	3019	3016	3	58.576	0.000	-58.576	-0.000	-0.000	0.000
3034	3033	3026	3027	3	0.000	0.000	0.000	-0.000	-0.000	0.000
3035	3033	3026	3027	3	0.000	0.000	0.000	-0.000	-0.000	0.000
3036	3033	3026	3027	3	0.000	0.000	0.000	-0.000	-0.000	0.000
3035	3033	3026	3015	3	0.000	0.000	0.000	-0.000	-0.000	0.000
3034	3033	3026	3015	3	0.000	0.000	0.000	-0.000	-0.000	0.000
3036	3033	3026	3015	3	0.000	0.000	0.000	-0.000	-0.000	0.000
3035	3033	3026	3025	3	1.130	3.389	0.000	-4.519	-0.000	0.000
3036	3033	3026	3025	3	1.130	3.389	0.000	-4.519	-0.000	0.000
3034	3033	3026	3025	3	1.130	3.389	0.000	-4.519	-0.000	0.000
3064	3010	3009	3008	3	58.576	0.000	-58.576	-0.000	-0.000	0.000
3064	3010	3011	3012	3	58.576	0.000	-58.576	-0.000	-0.000	0.000
3064	3010	3011	3037	3	58.576	0.000	-58.576	-0.000	-0.000	0.000
3064	3010	3009	3041	3	58.576	0.000	-58.576	-0.000	-0.000	0.000
3053	2995	2994	2993	3	30.334	0.000	-30.334	-0.000	-0.000	0.000
3052	2992	2993	2994	3	30.334	0.000	-30.334	-0.000	-0.000	0.000
3058	3001	2993	2994	3	30.334	0.000	-30.334	-0.000	-0.000	0.000
3057	3000	2994	2993	3	30.334	0.000	-30.334	-0.000	-0.000	0.000
3057	3000	2994	2995	3	30.334	0.000	-30.334	-0.000	-0.000	0.000
3053	2995	2994	3000	3	30.334	0.000	-30.334	-0.000	-0.000	0.000
3052	2992	2993	3001	3	30.334	0.000	-30.334	-0.000	-0.000	0.000
3058	3001	2993	2992	3	30.334	0.000	-30.334	-0.000	-0.000	0.000
3051	2991	2992	2993	3	30.334	0.000	-30.334	-0.000	-0.000	0.000
3059	3002	3001	2993	3	30.334	0.000	-30.334	-0.000	-0.000	0.000
3054	2996	2995	2994	3	30.334	0.000	-30.334	-0.000	-0.000	0.000
3056	2999	3000	2994	3	30.334	0.000	-30.334	-0.000	-0.000	0.000
3061	3005	3006	3007	3	30.334	0.000	-30.334	-0.000	-0.000	0.000
3083	3042	3006	3007	3	30.334	0.000	-30.334	-0.000	-0.000	0.000
3068	3028	3029	3030	3	30.334	0.000	-30.334	-0.000	-0.000	0.000
3056	2999	2997	2996	3	30.334	0.000	-30.334	-0.000	-0.000	0.000
3071	3031	3030	3029	3	30.334	0.000	-30.334	-0.000	-0.000	0.000
3083	3042	3043	3003	3	30.334	0.000	-30.334	-0.000	-0.000	0.000
3069	3029	3028	3027	3	30.334	0.000	-30.334	-0.000	-0.000	0.000
3084	3043	3042	3006	3	30.334	0.000	-30.334	-0.000	-0.000	0.000
3070	3030	3029	3028	3	30.334	0.000	-30.334	-0.000	-0.000	0.000
3059	3002	2990	2991	3	30.334	0.000	-30.334	-0.000	-0.000	0.000
3058	3001	3002	2990	3	30.334	0.000	-30.334	-0.000	-0.000	0.000
3083	3042	3006	3005	3	30.334	0.000	-30.334	-0.000	-0.000	0.000
3084	3043	3003	3004	3	30.334	0.000	-30.334	-0.000	-0.000	0.000
3071	3031	3032	3027	3	30.334	0.000	-30.334	-0.000	-0.000	0.000
3068	3028	3027	3032	3	30.334	0.000	-30.334	-0.000	-0.000	0.000
3053	2995	2996	2997	3	30.334	0.000	-30.334	-0.000	-0.000	0.000
3054	2996	2997	2999	3	30.334	0.000	-30.334	-0.000	-0.000	0.000
3051	2991	2990	3002	3	30.334	0.000	-30.334	-0.000	-0.000	0.000
3060	3004	3003	3043	3	30.334	0.000	-30.334	-0.000	-0.000	0.000
3060	3004	3005	3006	3	30.334	0.000	-30.334	-0.000	-0.000	0.000
3057	3000	2999	2997	3	30.334	0.000	-30.334	-0.000	-0.000	0.000
3061	3005	3006	3042	3	30.334	0.000	-30.334	-0.000	-0.000	0.000
3070	3030	3031	3032	3	30.334	0.000	-30.334	-0.000	-0.000	0.000
3072	3032	3031	3030	3	30.334	0.000	-30.334	-0.000	-0.000	0.000
3069	3029	3030	3031	3	30.334	0.000	-30.334	-0.000	-0.000	0.000
3072	3032	3027	3028	3	30.334	0.000	-30.334	-0.000	-0.000	0.000
3052	2992	2991	2990	3	30.334	0.000	-30.334	-0.000	-0.000	0.000
3061	3005	3004	3003	3	30.334	0.000	-30.334	-0.000	-0.000	0.000
3072	3032	3027	3026	3	30.334	0.000	-30.334	-0.000	-0.000	0.000
3068	3028	3027	3026	3	30.334	0.000	-30.334	-0.000	-0.000	0.000
3061	3005	3004	3060	3	30.334	0.000	-30.334	-0.000	-0.000	0.000
3084	3043	3042	3083	3	30.334	0.000	-30.334	-0.000	-0.000	0.000
3070	3030	3029	3069	3	30.334	0.000	-30.334	-0.000	-0.000	0.000
3054	2996	2995	3053	3	30.334	0.000	-30.334	-0.000	-0.000	0.000
3059	3002	3001	3058	3	30.334	0.000	-30.334	-0.000	-0.000	0.000
3057	3000	2999	3056	3	30.334	0.000	-30.334	-0.000	-0.000	0.000
3069	3029	3028	3068	3	30.334	0.000	-30.334	-0.000	-0.000	0.000
3052	2992	2991	3051	3	30.334	0.000	-30.334	-0.000	-0.000	0.000
3071	3031	3030	3070	3	30.334	0.000	-30.334	-0.000	-0.000	0.000
3072	3032	3031	3071	3	30.334	0.000	-30.334	-0.000	-0.000	0.000
3084	3043	3003	2986	3	30.334	0.000	-30.334	-0.000	-0.000	0.000
3060	3004	3003	2986	3	30.334	0.000	-30.334	-0.000	-0.000	0.000
3054	2996	2997	2998	3	0.0	0.0	0.0	-0.0	-0.0	0.0
3056	2999	2997	2998	3	0.0	0.0	0.0	-0.0	-0.0	0.0
3051	2991	2990	2989	3	30.334	0.000	-30.334	-0.000	-0.000	0.000
3059	3002	2990	2989	3	30.334	0.000	-30.334	-0.000	-0.000	0.000
3065	3012	3011	3010	3	58.576	0.000	-58.576	-0.000	-0.000	0.000
3065	3012	3013	3014	3	58.576	0.000	-58.576	-0.000	-0.000	0.000
3067	3014	3013	3012	3	58.576	0.000	-58.576	-0.000	-0.000	0.000
3066	3013	3012	3011	3	58.576	0.000	-58.576	-0.000	-0.000	0.000
3063	3008	3009	3010	3	58.576	0.000	-58.576	-0.000	-0.000	0.000
3062	3007	3008	3009	3	58.576	0.000	-58.576	-0.000	-0.000	0.000
3063	3008	3007	3006	3	58.576	0.000	-58.576	-0.000	-0.000	0.000
3066	3013	3014	3015	3	58.576	0.000	-58.576	-0.000	-0.000	0.000
3065	3012	3011	3037	3	58.576	0.000	-58.576	-0.000	-0.000	0.000
3063	3008	3009	3041	3	58.576	0.000	-58.576	-0.000	-0.000	0.000
3063	3008	3007	3062	3	58.576	0.000	-58.576	-0.000	-0.000	0.000
3066	3013	3012	3065	3	58.576	0.000	-58.576	-0.000	-0.000	0.000
3067	3014	3013	3066	3	58.576	0.000	-58.576	-0.000	-0.000	0.000
3062	3007	3006	3042	3	-0.778	-2.335	0.000	3.113	-0.000	0.000
3062	3007	3006	3005	3	-0.778	-2.335	0.000	3.113	-0.000	0.000
3067	3014	3015	3016	3	58.576	0.000	-58.576	-0.000	-0.000	0.000
3067	3014	3015	3026	3	58.576	0.000	-58.576	-0.000	-0.000	0.000
3081	3041	3009	3008	3	-0.778	-2.335	0.000	3.113	-0.000	0.000
3081	3041	3009	3010	3	-0.778	-2.335	0.000	3.113	-0.000	0.000
3082	3041	3009	3008	3	-0.778	-2.335	0.000	3.113	-0.000	0.000
3074	3037	3011	3012	3	-0.778	-2.335	0.000	3.113	-0.000	0.000
3082	3041	3009	3010	3	-0.778	-2.335	0.000	3.113	-0.000	0.000
3073	3037	3011	3010	3	-0.778	-2.335	0.000	3.113	-0.000	0.000
3074	3037	3011	3010	3	-0.778	-2.335	0.000	3.113	-0.000	0.000
3073	3037	3011	3012	3	-0.778	-2.335	0.000	3.113	-0.000	0.000
3076	3039	3038	3041	3	0.628	1.883	0.000	-2.510	-0.000	0.000
3075	3039	3038	3040	3	0.628	1.883	0.000	-2.510	-0.000	0.000
3075	3039	3038	3037	3	0.628	1.883	0.000	-2.510	-0.000	0.000
3077	3039	3038	3040	3	0.628	1.883	0.000	-2.510	-0.000	0.000
3079	3040	3038	3037	3	0.628	1.883	0.000	-2.510	-0.000	0.000
3078	3040	3038	3037	3	0.628	1.883	0.000	-2.510	-0.000	0.000
3077	3039	3038	3037	3	0.628	1.883	0.000	-2.510	-0.000	0.000
3079	3040	3038	3039	3	0.628	1.883	0.000	-2.510	-0.000	0.000
3076	3039	3038	3037	3	0.628	1.883	0.000	-2.510	-0.000	0.000
3081	3041	3038	3037	3	0.628	1.883	0.000	-2.510	-0.000	0.000
3081	3041	3038	3039	3	0.628	1.883	0.000	-2.510	-0.000	0.000
3074	3037	3038	3039	3	0.628	1.883	0.000	-2.510	-0.000	0.000
3077	3039	3038	3041	3	0.628	1.883	0.000	-2.510	-0.000	0.000
3074	3037	3038	3040	3	0.628	1.883	0.000	-2.510	-0.000	0.000
3082	3041	3038	3039	3	0.628	1.883	0.000	-2.510	-0.000	0.000
3078	3040	3038	3041	3	0.628	1.883	0.000	-2.510	-0.000	0.000
3079	3040	3038	3041	3	0.628	1.883	0.000	-2.510	-0.000	0.000
3080	3040	3038	3037	3	0.628	1.883	0.000	-2.510	-0.000	0.000
3073	3037	3038	3040	3	0.628	1.883	0.000	-2.510	-0.000	0.000
3073	3037	3038	3039	3	0.628	1.883	0.000	-2.510	-0.000	0.000
3078	3040	3038	3039	3	0.628	1.883	0.000	-2.510	-0.000	0.000
3074	3037	3038	3041	3	0.628	1.883	0.000	-2.510	-0.000	0.000
3082	3041	3038	3040	3	0.628	1.883	0.000	-2.510	-0.000	0.000
3076	3039	3038	3040	3	0.628	1.883	0.000	-2.510	-0.000	0.000
3075	3039	3038	3041	3	0.628	1.883	0.000	-2.510	-0.000	0.000
3082	3041	3038	3037	3	0.628	1.883	0.000	-2.510	-0.000	0.000
3073	3037	3038	3041	3	0.628	1.883	0.000	-2.510	-0.000	0.000
3080	3040	3038	3039	3	0.628	1.883	0.000	-2.510	-0.000	0.000
3081	3041	3038	3040	3	0.628	1.883	0.000	-2.510	-0.000	0.000
3080	3040	3038	3041	3	0.628	1.883	0.000	-2.510	-0.000	0.000
3049	2988	2987	3048	3	0.628	1.883	0.000	-2.510	-0.000	0.000
3050	2988	2987	3047	3	0.628	1.883	0.000	-2.510	-0.000	0.000
3049	2988	2987	3047	3	0.628	1.883	0.000	-2.510	-0.000	0.000
3050	2988	2987	3048	3	0.628	1.883	0.000	-2.510	-0.000	0.000
3050	2988	2987	2986	3	-4.096	5.088	2.966	-3.958	-0.000	0.000
3049	2988	2987	2986	3	-4.096	5.088	2.966	-3.958	-0.000	0.000
3048	2987	2988	2989	3	0.979	2.937	0.000	-3.916	-0.000	0.000
3047	2987	2988	2989	3	0.979	2.937	0.000	-3.916	-0.000	0.000
3048	2987	2986	3003	3	1.172	3.515	0.000	-4.686	-0.000	0.000
3044	2985	2986	3003	3	1.172	3.515	0.000	-4.686	-0.000	0.000
3047	2987	2986	3003	3	1.172	3.515	0.000	-4.686	-0.000	0.000
3045	2985	2986	3003	3	1.172	3.515	0.000	-4.686	-0.000	0.000
3046	2985	2986	3003	3	1.172	3.515	0.000	-4.686	-0.000	0.000
3047	2987	2986	2985	3	1.172	3.515	0.000	-4.686	-0.000	0.000
3045	2985	2986	2987	3	1.172	3.515	0.000	-4.686	-0.000	0.000
3048	2987	2986	2985	3	1.172	3.515	0.000	-4.686	-0.000	0.000
3046	2985	2986	2987	3	1.172	3.515	0.000	-4.686	-0.000	0.000
3044	2985	2986	2987	3	1.172	3.515	0.000	-4.686	-0.000	0.000
3049	2988	2989	2990	3	1.590	4.770	0.000	-6.360	-0.000	0.000
3050	2988	2989	2990	3	1.590	4.770	0.000	-6.360	-0.000	0.000
3055	2998	2997	2999	3	0.0	0.0	0.0	-0.0	-0.0	0.0
3055	2998	2997	2996	3	0.0	0.0	0.0	-0.0	-0.0	0.0
2998	2997	2996	2995	3	0.0	0.0	0.0	-0.0	-0.0	0.0
3025	3026	3015	3014	3	2.874	0.582	2.092	-5.548	-0.000	0.000
3025	3026	3015	3016	3	1.046	-1.046	0.000	-0.000	-0.000	0.000
2989	2988	2987	2986	3	16.736	-16.736	0.000	-0.000	-0.000	0.000
3025	3019	3016	3015	3	1.046	-1.046	0.000	-0.000	-0.000	0.000
3025	3019	3016	3017	3	9.079	0.000	-9.079	-0.000	-0.000	0.000
3094	3093	3092	3091	3	30.334	0.000	-30.334	-0.000	-0.000	0.000
3093	3101	3102	3090	3	30.334	0.000	-30.334	-0.000	-0.000	0.000
3093	3092	3091	3090	3	30.334	0.000	-30.334	-0.000	-0.000	0.000
3114	3113	3112	3111	3	21.738	2.408	-16.966	-7.180	-0.000	0.000
3110	3109	3108	3107	3	21.738	2.408	-16.966	-7.180	-0.000	0.000
3111	3110	3109	3108	3	21.738	2.408	-16.966	-7.180	-0.000	0.000
3112	3111	3110	3109	3	21.738	2.408	-16.966	-7.180	-0.000	0.000
3113	3112	3111	3110	3	21.738	2.408	-16.966	-7.180	-0.000	0.000
3109	3108	3107	3106	3	58.576	0.000	-58.576	-0.000	-0.000	0.000
3108	3107	3106	3105	3	16.027	-4.391	-14.029	2.393	-0.000	0.000
3107	3106	3105	3104	3	30.334	0.000	-30.334	-0.000	-0.000	0.000
3116	3115	3114	3113	3	58.576	0.000	-58.576	-0.000	-0.000	0.000
3101	3093	3094	3100	3	9.079	0.000	-9.079	-0.000	-0.000	0.000
3100	3094	3093	3092	3	9.079	0.000	-9.079	-0.000	-0.000	0.000
3101	3093	3094	3095	3	9.079	0.000	-9.079	-0.000	-0.000	0.000
3095	3094	3093	3092	3	9.079	0.000	-9.079	-0.000	-0.000	0.000
3100	3094	3095	3096	3	30.334	0.000	-30.334	-0.000	-0.000	0.000
3101	3093	3092	3091	3	30.334	0.000	-30.334	-0.000	-0.000	0.000
3099	3100	3094	3093	3	30.334	0.000	-30.334	-0.000	-0.000	0.000
3102	3101	3093	3094	3	30.334	0.000	-30.334	-0.000	-0.000	0.000
3096	3095	3094	3093	3	30.334	0.000	-30.334	-0.000	-0.000	0.000
3099	3100	3094	3095	3	30.334	0.000	-30.334	-0.000	-0.000	0.000
3102	3101	3093	3092	3	30.334	0.000	-30.334	-0.000	-0.000	0.000
3142	3106	3107	3108	3	16.027	-4.391	-14.029	2.393	-0.000	0.000
3097	3099	3100	3094	3	30.334	0.000	-30.334	-0.000	-0.000	0.000
3097	3096	3095	3094	3	30.334	0.000	-30.334	-0.000	-0.000	0.000
3143	3142	3106	3107	3	30.334	0.000	-30.334	-0.000	-0.000	0.000
3132	3127	3128	3129	3	30.334	0.000	-30.334	-0.000	-0.000	0.000
3143	3142	3106	3105	3	30.334	0.000	-30.334	-0.000	-0.000	0.000
3102	3090	3091	3092	3	30.334	0.000	-30.334	-0.000	-0.000	0.000
3142	3143	3103	3104	3	30.334	0.000	-30.334	-0.000	-0.000	0.000
3132	3131	3130	3129	3	30.334	0.000	-30.334	-0.000	-0.000	0.000
3131	3130	3129	3128	3	30.334	0.000	-30.334	-0.000	-0.000	0.000
3130	3129	3128	3127	3	30.334	0.000	-30.334	-0.000	-0.000	0.000
3106	3105	3104	3103	3	30.334	0.000	-30.334	-0.000	-0.000	0.000
3106	3142	3143	3103	3	30.334	0.000	-30.334	-0.000	-0.000	0.000
3143	3103	3104	3105	3	30.334	0.000	-30.334	-0.000	-0.000	0.000
3142	3106	3105	3104	3	30.334	0.000	-30.334	-0.000	-0.000	0.000
3131	3132	3127	3128	3	30.334	0.000	-30.334	-0.000	-0.000	0.000
3100	3099	3097	3096	3	30.334	0.000	-30.334	-0.000	-0.000	0.000
3101	3102	3090	3091	3	30.334	0.000	-30.334	-0.000	-0.000	0.000
3130	3131	3132	3127	3	30.334	0.000	-30.334	-0.000	-0.000	0.000
3099	3097	3096	3095	3	30.334	0.000	-30.334	-0.000	-0.000	0.000
3131	3132	3127	3126	3	30.334	0.000	-30.334	-0.000	-0.000	0.000
3129	3128	3127	3126	3	30.334	0.000	-30.334	-0.000	-0.000	0.000
3142	3143	3103	3086	3	30.334	0.000	-30.334	-0.000	-0.000	0.000
3105	3104	3103	3086	3	30.334	0.000	-30.334	-0.000	-0.000	0.000
3100	3099	3097	3098	3	0.0	0.0	0.0	-0.0	-0.0	0.0
3092	3091	3090	3089	3	30.334	0.000	-30.334	-0.000	-0.000	0.000
3101	3102	3090	3089	3	30.334	0.000	-30.334	-0.000	-0.000	0.000
3132	3127	3126	3115	3	0.000	0.000	0.000	-0.000	-0.000	0.000
3128	3127	3126	3115	3	0.000	0.000	0.000	-0.000	-0.000	0.000
3132	3127	3126	3125	3	0.000	0.000	0.000	-0.000	-0.000	0.000
3128	3127	3126	3125	3	0.000	0.000	0.000	-0.000	-0.000	0.000
3143	3103	3086	3087	3	5.184	35.932	-14.355	-26.761	-0.000	0.000
3104	3103	3086	3087	3	5.184	35.932	-14.355	-26.761	-0.000	0.000
3104	3103	3086	3085	3	5.184	35.932	-14.355	-26.761	-0.000	0.000
3143	3103	3086	3085	3	5.184	35.932	-14.355	-26.761	-0.000	0.000
3091	3090	3089	3088	3	12.552	0.000	-12.552	-0.000	-0.000	0.000
3102	3090	3089	3088	3	12.552	0.000	-12.552	-0.000	-0.000	0.000
3127	3126	3115	3114	3	6.322	-2.485	0.707	-4.544	-0.000	0.000
3127	3126	3115	3116	3	0.527	-6.397	-1.695	7.565	-0.000	0.000
3127	3126	3125	3119	3	1.715	2.845	1.046	-5.607	-0.000	0.000
3103	3086	3087	3088	3	1.789	3.492	0.536	-5.816	-0.000	0.000
3090	3089	3088	3087	3	1.715	2.845	1.046	-5.607	-0.000	0.000
3133	3126	3127	3128	3	0.000	0.000	0.000	-0.000	-0.000	0.000
3133	3126	3127	3132	3	0.000	0.000	0.000	-0.000	-0.000	0.000
3133	3126	3115	3114	3	6.322	-2.485	0.707	-4.544	-0.000	0.000
3133	3126	3115	3116	3	0.527	-6.397	-1.695	7.565	-0.000	0.000
3133	3126	3125	3119	3	1.715	2.845	1.046	-5.607	-0.000	0.000
3115	3114	3113	3112	3	21.738	2.408	-16.966	-7.180	-0.000	0.000
3120	3119	3116	3115	3	21.738	2.408	-16.966	-7.180	-0.000	0.000
3120	3119	3116	3117	3	-0.778	-2.335	0.000	3.113	-0.000	0.000
3141	3109	3108	3107	3	58.576	0.000	-58.576	-0.000	-0.000	0.000
3137	3111	3110	3109	3	58.576	0.000	-58.576	-0.000	-0.000	0.000
3141	3109	3110	3111	3	58.576	0.000	-58.576	-0.000	-0.000	0.000
3137	3111	3112	3113	3	58.576	0.000	-58.576	-0.000	-0.000	0.000
3126	3115	3114	3113	3	-0.778	-2.335	0.000	3.113	-0.000	0.000
3126	3115	3116	3119	3	58.576	0.000	-58.576	-0.000	-0.000	0.000
3126	3115	3116	3117	3	58.576	0.000	-58.576	-0.000	-0.000	0.000
3138	3141	3109	3108	3	0.527	-6.397	-1.695	7.565	-0.000	0.000
3138	3137	3111	3112	3	0.527	-6.397	-1.695	7.565	-0.000	0.000
3138	3137	3111	3110	3	0.527	-6.397	-1.695	7.565	-0.000	0.000
3138	3141	3109	3110	3	0.527	-6.397	-1.695	7.565	-0.000	0.000
3141	3138	3137	3111	3	2.301	-1.464	0.837	-1.674	-0.000	0.000
3140	3138	3141	3109	3	2.301	-1.464	0.837	-1.674	-0.000	0.000
3137	3138	3141	3109	3	2.301	-1.464	0.837	-1.674	-0.000	0.000
3139	3138	3141	3109	3	2.301	-1.464	0.837	-1.674	-0.000	0.000
3140	3138	3137	3111	3	2.301	-1.464	0.837	-1.674	-0.000	0.000
3139	3138	3137	3111	3	2.301	-1.464	0.837	-1.674	-0.000	0.000
3088	3087	3086	3085	3	1.789	3.492	0.536	-5.816	-0.000	0.000
3126	3125	3119	3116	3	30.334	0.000	-30.334	-0.000	-0.000	0.000
3126	3125	3119	3120	3	30.334	0.000	-30.334	-0.000	-0.000	0.000
3119	3116	3115	3114	3	58.576	0.000	-58.576	-0.000	-0.000	0.000
3119	3125	3126	3115	3	1.715	2.845	1.046	-5.607	-0.000	0.000
3117	3116	3115	3114	3	58.576	0.000	-58.576	-0.000	-0.000	0.000
3121	3120	3119	3116	3	58.576	0.000	-58.576	-0.000	-0.000	0.000
3123	3120	3119	3116	3	58.576	0.000	-58.576	-0.000	-0.000	0.000
3134	3133	3126	3127	3	0.000	0.000	0.000	-0.000	-0.000	0.000
3135	3133	3126	3127	3	0.000	0.000	0.000	-0.000	-0.000	0.000
3136	3133	3126	3127	3	0.000	0.000	0.000	-0.000	-0.000	0.000
3135	3133	3126	3115	3	0.000	0.000	0.000	-0.000	-0.000	0.000
3134	3133	3126	3115	3	0.000	0.000	0.000	-0.000	-0.000	0.000
3136	3133	3126	3115	3	0.000	0.000	0.000	-0.000	-0.000	0.000
3135	3133	3126	3125	3	1.130	3.389	0.000	-4.519	-0.000	0.000
3136	3133	3126	3125	3	1.130	3.389	0.000	-4.519	-0.000	0.000
3134	3133	3126	3125	3	1.130	3.389	0.000	-4.519	-0.000	0.000
3164	3110	3109	3108	3	58.576	0.000	-58.576	-0.000	-0.000	0.000
3164	3110	3111	3112	3	58.576	0.000	-58.576	-0.000	-0.000	0.000
3164	3110	3111	3137	3	58.576	0.000	-58.576	-0.000	-0.000	0.000
3164	3110	3109	3141	3	58.576	0.000	-58.576	-0.000	-0.000	0.000
3153	3095	3094	3093	3	30.334	0.000	-30.334	-0.000	-0.000	0.000
3152	3092	3093	3094	3	30.334	0.000	-30.334	-0.000	-0.000	0.000
3158	3101	3093	3094	3	30.334	0.000	-30.334	-0.000	-0.000	0.000
3157	3100	3094	3093	3	30.334	0.000	-30.334	-0.000	-0.000	0.000
3157	3100	3094	3095	3	30.334	0.000	-30.334	-0.000	-0.000	0.000
3153	3095	3094	3100	3	30.334	0.000	-30.334	-0.000	-0.000	0.000
3152	3092	3093	3101	3	30.334	0.000	-30.334	-0.000	-0.000	0.000
3158	3101	3093	3092	3	30.334	0.000	-30.334	-0.000	-0.000	0.000
3151	3091	3092	3093	3	30.334	0.000	-30.334	-0.000	-0.000	0.000
3159	3102	3101	3093	3	30.334	0.000	-30.334	-0.000	-0.000	0.000
3154	3096	3095	3094	3	30.334	0.000	-30.334	-0.000	-0.000	0.000
3156	3099	3100	3094	3	30.334	0.000	-30.334	-0.000	-0.000	0.000
3161	3105	3106	3107	3	30.334	0.000	-30.334	-0.000	-0.000	0.000
3183	3142	3106	3107	3	30.334	0.000	-30.334	-0.000	-0.000	0.000
3168	3128	3129	3130	3	30.334	0.000	-30.334	-0.000	-0.000	0.000
3156	3099	3097	3096	3	30.334	0.000	-30.334	-0.000	-0.000	0.000
3171	3131	3130	3129	3	30.334	0.000	-30.334	-0.000	-0.000	0.000
3183	3142	3143	3103	3	30.334	0.000	-30.334	-0.000	-0.000	0.000
3169	3129	3128	3127	3	30.334	0.000	-30.334	-0.000	-0.000	0.000
3184	3143	3142	3106	3	30.334	0.000	-30.334	-0.000	-0.000	0.000
3170	3130	3129	3128	3	30.334	0.000	-30.334	-0.000	-0.000	0.000
3159	3102	3090	3091	3	30.334	0.000	-30.334	-0.000	-0.000	0.000
3158	3101	3102	3090	3	30.334	0.000	-30.334	-0.000	-0.000	0.000
3183	3142	3106	3105	3	30.334	0.000	-30.334	-0.000	-0.000	0.000
3184	3143	3103	3104	3	30.334	0.000	-30.334	-0.000	-0.000	0.000
3171	3131	3132	3127	3	30.334	0.000	-30.334	-0.000	-0.000	0.000
3168	3128	3127	3132	3	30.334	0.000	-30.334	-0.000	-0.000	0.000
3153	3095	3096	3097	3	30.334	0.000	-30.334	-0.000	-0.000	0.000
3154	3096	3097	3099	3	30.334	0.000	-30.334	-0.000	-0.000	0.000
3151	3091	3090	3102	3	30.334	0.000	-30.334	-0.000	-0.000	0.000
3160	3104	3103	3143	3	30.334	0.000	-30.334	-0.000	-0.000	0.000
3160	3104	3105	3106	3	30.334	0.000	-30.334	-0.000	-0.000	0.000
3157	3100	3099	3097	3	30.334	0.000	-30.334	-0.000	-0.000	0.000
3161	3105	3106	3142	3	30.334	0.000	-30.334	-0.000	-0.000	0.000
3170	3130	3131	3132	3	30.334	0.000	-30.334	-0.000	-0.000	0.000
3172	3132	3131	3130	3	30.334	0.000	-30.334	-0.000	-0.000	0.000
3169	3129	3130	3131	3	30.334	0.000	-30.334	-0.000	-0.000	0.000
3172	3132	3127	3128	3	30.334	0.000	-30.334	-0.000	-0.000	0.000
3152	3092	3091	3090	3	30.334	0.000	-30.334	-0.000	-0.000	0.000
3161	3105	3104	3103	3	30.334	0.000	-30.334	-0.000	-0.000	0.000
3172	3132	3127	3126	3	30.334	0.000	-30.334	-0.000	-0.000	0.000
3168	3128	3127	3126	3	30.334	0.000	-30.334	-0.000	-0.000	0.000
3161	3105	3104	3160	3	30.334	0.000	-30.334	-0.000	-0.000	0.000
3184	3143	3142	3183	3	30.334	0.000	-30.334	-0.000	-0.000	0.000
3170	3130	3129	3169	3	30.334	0.000	-30.334	-0.000	-0.000	0.000
3154	3096	3095	3153	3	30.334	0.000	-30.334	-0.000	-0.000	0.000
3159	3102	3101	3158	3	30.334	0.000	-30.334	-0.000	-0.000	0.000
3157	3100	3099	3156	3	30.334	0.000	-30.334	-0.000	-0.000	0.000
3169	3129	3128	3168	3	30.334	0.000	-30.334	-0.000	-0.000	0.000
3152	3092	3091	3151	3	30.334	0.000	-30.334	-0.000	-0.000	0.000
3171	3131	3130	3170	3	30.334	0.000	-30.334	-0.000	-0.000	0.000
3172	3132	3131	3171	3	30.334	0.000	-30.334	-0.000	-0.000	0.000
3184	3143	3103	3086	3	30.334	0.000	-30.334	-0.000	-0.000	0.000
3160	3104	3103	3086	3	30.334	0.000	-30.334	-0.000	-0.000	0.000
3154	3096	3097	3098	3	0.0	0.0	0.0	-0.0	-0.0	0.0
3156	3099	3097	3098	3	0.0	0.0	0.0	-0.0	-0.0	0.0
3151	3091	3090	3089	3	30.334	0.000	-30.334	-0.000	-0.000	0.000
3159	3102	3090	3089	3	30.334	0.000	-30.334	-0.000	-0.000	0.000
3165	3112	3111	3110	3	58.576	0.000	-58.576	-0.000	-0.000	0.000
3165	3112	3113	3114	3	58.576	0.000	-58.576	-0.000	-0.000	0.000
3167	3114	3113	3112	3	58.576	0.000	-58.576	-0.000	-0.000	0.000
3166	3113	3112	3111	3	58.576	0.000	-58.576	-0.000	-0.000	0.000
3163	3108	3109	3110	3	58.576	0.000	-58.576	-0.000	-0.000	0.000
3162	3107	3108	3109	3	58.576	0.000	-58.576	-0.000	-0.000	0.000
3163	3108	3107	3106	3	58.576	0.000	-58.576	-0.000	-0.000	0.000
3166	3113	3114	3115	3	58.576	0.000	-58.576	-0.000	-0.000	0.000
3165	3112	3111	3137	3	58.576	0.000	-58.576	-0.000	-0.000	0.000
3163	3108	3109	3141	3	58.576	0.000	-58.576	-0.000	-0.000	0.000
3163	3108	3107	3162	3	58.576	0.000	-58.576	-0.000	-0.000	0.000
3166	3113	3112	3165	3	58.576	0.000	-58.576	-0.000	-0.000	0.000
3167	3114	3113	3166	3	58.576	0.000	-58.576	-0.000	-0.000	0.000
3162	3107	3106	3142	3	-0.778	-2.335	0.000	3.113	-0.000	0.000
3162	3107	3106	3105	3	-0.778	-2.335	0.000	3.113	-0.000	0.000
3167	3114	3115	3116	3	58.576	0.000	-58.576	-0.000	-0.000	0.000
3167	3114	3115	3126	3	58.576	0.000	-58.576	-0.000	-0.000	0.000
3181	3141	3109	3108	3	-0.778	-2.335	0.000	3.113	-0.000	0.000
3181	3141	3109	3110	3	-0.778	-2.335	0.000	3.113	-0.000	0.000
3182	3141	3109	3108	3	-0.778	-2.335	0.000	3.113	-0.000	0.000
3174	3137	3111	3112	3	-0.778	-2.335	0.000	3.113	-0.000	0.000
3182	3141	3109	3110	3	-0.778	-2.335	0.000	3.113	-0.000	0.000
3173	3137	3111	3110	3	-0.778	-2.335	0.000	3.113	-0.000	0.000
3174	3137	3111	3110	3	-0.778	-2.335	0.000	3.113	-0.000	0.000
3173	3137	3111	3112	3	-0.778	-2.335	0.000	3.113	-0.000	0.000
3176	3139	3138	3141	3	0.628	1.883	0.000	-2.510	-0.000	0.000
3175	3139	3138	3140	3	0.628	1.883	0.000	-2.510	-0.000	0.000
3175	3139	3138	3137	3	0.628	1.883	0.000	-2.510	-0.000	0.000
3177	3139	3138	3140	3	0.628	1.883	0.000	-2.510	-0.000	0.000
3179	3140	3138	3137	3	0.628	1.883	0.000	-2.510	-0.000	0.000
3178	3140	3138	3137	3	0.628	1.883	0.000	-2.510	-0.000	0.000
3177	3139	3138	3137	3	0.628	1.883	0.000	-2.510	-0.000	0.000
3179	3140	3138	3139	3	0.628	1.883	0.000	-2.510	-0.000	0.000
3176	3139	3138	3137	3	0.628	1.883	0.000	-2.510	-0.000	0.000
3181	3141	3138	3137	3	0.628	1.883	0.000	-2.510	-0.000	0.000
3181	3141	3138	3139	3	0.628	1.883	0.000	-2.510	-0.000	0.000
3174	3137	3138	3139	3	0.628	1.883	0.000	-2.510	-0.000	0.000
3177	3139	3138	3141	3	0.628	1.883	0.000	-2.510	-0.000	0.000
3174	3137	3138	3140	3	0.628	1.883	0.000	-2.510	-0.000	0.000
3182	3141	3138	3139	3	0.628	1.883	0.000	-2.510	-0.000	0.000
3178	3140	3138	3141	3	0.628	1.883	0.000	-2.510	-0.000	0.000
3179	3140	3138	3141	3	0.628	1.883	0.000	-2.510	-0.000	0.000
3180	3140	3138	3137	3	0.628	1.883	0.000	-2.510	-0.000	0.000
3173	3137	3138	3140	3	0.628	1.883	0.000	-2.510	-0.000	0.000
3173	3137	3138	3139	3	0.628	1.883	0.000	-2.510	-0.000	0.000
3178	3140	3138	3139	3	0.628	1.883	0.000	-2.510	-0.000	0.000
3174	3137	3138	3141	3	0.628	1.883	0.000	-2.510	-0.000	0.000
3182	3141	3138	3140	3	0.628	1.883	0.000	-2.510	-0.000	0.000
3176	3139	3138	3140	3	0.628	1.883	0.000	-2.510	-0.000	0.000
3175	3139	3138	3141	3	0.628	1.883	0.000	-2.510	-0.000	0.000
3182	3141	3138	3137	3	0.628	1.883	0.000	-2.510	-0.000	0.000
3173	3137	3138	3141	3	0.628	1.883	0.000	-2.510	-0.000	0.000
3180	3140	3138	3139	3	0.628	1.883	0.000	-2.510	-0.000	0.000
3181	3141	3138	3140	3	0.628	1.883	0.000	-2.510	-0.000	0.000
3180	3140	3138	3141	3	0.628	1.883	0.000	-2.510	-0.000	0.000
3149	3088	3087	3148	3	0.628	1.883	0.000	-2.510	-0.000	0.000
3150	3088	3087	3147	3	0.628	1.883	0.000	-2.510	-0.000	0.000
3149	3088	3087	3147	3	0.628	1.883	0.000	-2.510	-0.000	0.000
3150	3088	3087	3148	3	0.628	1.883	0.000	-2.510	-0.000	0.000
3150	3088	3087	3086	3	-4.096	5.088	2.966	-3.958	-0.000	0.000
3149	3088	3087	3086	3	-4.096	5.088	2.966	-3.958	-0.000	0.000
3148	3087	3088	3089	3	0.979	2.937	0.000	-3.916	-0.000	0.000
3147	3087	3088	3089	3	0.979	2.937	0.000	-3.916	-0.000	0.000
3148	3087	3086	3103	3	1.172	3.515	0.000	-4.686	-0.000	0.000
3144	3085	3086	3103	3	1.172	3.515	0.000	-4.686	-0.000	0.000
3147	3087	3086	3103	3	1.172	3.515	0.000	-4.686	-0.000	0.000
3145	3085	3086	3103	3	1.172	3.515	0.000	-4.686	-0.000	0.000
3146	3085	3086	3103	3	1.172	3.515	0.000	-4.686	-0.000	0.000
3147	3087	3086	3085	3	1.172	3.515	0.000	-4.686	-0.000	0.000
3145	3085	3086	3087	3	1.172	3.515	0.000	-4.686	-0.000	0.000
3148	3087	3086	3085	3	1.172	3.515	0.000	-4.686	-0.000	0.000
3146	3085	3086	3087	3	1.172	3.515	0.000	-4.686	-0.000	0.000
3144	3085	3086	3087	3	1.172	3.515	0.000	-4.686	-0.000	0.000
3149	3088	3089	3090	3	1.590	4.770	0.000	-6.360	-0.000	0.000
3150	3088	3089	3090	3	1.590	4.770	0.000	-6.360	-0.000	0.000
3155	3098	3097	3099	3	0.0	0.0	0.0	-0.0	-0.0	0.0
3155	3098	3097	3096	3	0.0	0.0	0.0	-0.0	-0.0	0.0
3098	3097	3096	3095	3	0.0	0.0	0.0	-0.0	-0.0	0.0
3125	3126	3115	3114	3	2.874	0.582	2.092	-5.548	-0.000	0.000
3125	3126	3115	3116	3	1.046	-1.046	0.000	-0.000	-0.000	0.000
3089	3088	3087	3086	3	16.736	-16.736	0.000	-0.000	-0.000	0.000
3125	3119	3116	3115	3	1.046	-1.046	0.000	-0.000	-0.000	0.000
3125	3119	3116	3117	3	9.079	0.000	-9.079	-0.000	-0.000	0.000
3194	3193	3192	3191	3	30.334	0.000	-30.334	-0.000	-0.000	0.000
3193	3201	3202	3190	3	30.334	0.000	-30.334	-0.000	-0.000	0.000
3193	3192	3191	3190	3	30.334	0.000	-30.334	-0.000	-0.000	0.000
3214	3213	3212	3211	3	21.738	2.408	-16.966	-7.180	-0.000	0.000
3210	3209	3208	3207	3	21.738	2.408	-16.966	-7.180	-0.000	0.000
3211	3210	3209	3208	3	21.738	2.408	-16.966	-7.180	-0.000	0.000
3212	3211	3210	3209	3	21.738	2.408	-16.966	-7.180	-0.000	0.000
3213	3212	3211	3210	3	21.738	2.408	-16.966	-7.180	-0.000	0.000
3209	3208	3207	3206	3	58.576	0.000	-58.576	-0.000	-0.000	0.000
3208	3207	3206	3205	3	16.027	-4.391	-14.029	2.393	-0.000	0.000
3207	3206	3205	3204	3	30.334	0.000	-30.334	-0.000	-0.000	0.000
3216	3215	3214	3213	3	58.576	0.000	-58.576	-0.000	-0.000	0.000
3201	3193	3194	3200	3	9.079	0.000	-9.079	-0.000	-0.000	0.000
3200	3194	3193	3192	3	9.079	0.000	-9.079	-0.000	-0.000	0.000
3201	3193	3194	3195	3	9.079	0.000	-9.079	-0.000	-0.000	0.000
3195	3194	3193	3192	3	9.079	0.000	-9.079	-0.000	-0.000	0.000
3200	3194	3195	3196	3	30.334	0.000	-30.334	-0.000	-0.000	0.000
3201	3193	3192	3191	3	30.334	0.000	-30.334	-0.000	-0.000	0.000
3199	3200	3194	3193	3	30.334	0.000	-30.334	-0.000	-0.000	0.000
3202	3201	3193	3194	3	30.334	0.000	-30.334	-0.000	-0.000	0.000
3196	3195	3194	3193	3	30.334	0.000	-30.334	-0.000	-0.000	0.000
3199	3200	3194	3195	3	30.334	0.000	-30.334	-0.000	-0.000	0.000
3202	3201	3193	3192	3	30.334	0.000	-30.334	-0.000	-0.000	0.000
3242	3206	3207	3208	3	16.027	-4.391	-14.029	2.393	-0.000	0.000
3197	3199	3200	3194	3	30.334	0.000	-30.334	-0.000	-0.000	0.000
3197	3196	3195	3194	3	30.334	0.000	-30.334	-0.000	-0.000	0.000
3243	3242	3206	3207	3	30.334	0.000	-30.334	-0.000	-0.000	0.000
3232	3227	3228	3229	3	30.334	0.000	-30.334	-0.000	-0.000	0.000
3243	3242	3206	3205	3	30.334	0.000	-30.334	-0.000	-0.000	0.000
3202	3190	3191	3192	3	30.334	0.000	-30.334	-0.000	-0.000	0.000
3242	3243	3203	3204	3	30.334	0.000	-30.334	-0.000	-0.000	0.000
3232	3231	3230	3229	3	30.334	0.000	-30.334	-0.000	-0.000	0.000
3231	3230	3229	3228	3	30.334	0.000	-30.334	-0.000	-0.000	0.000
3230	3229	3228	3227	3	30.334	0.000	-30.334	-0.000	-0.000	0.000
3206	3205	3204	3203	3	30.334	0.000	-30.334	-0.000	-0.000	0.000
3206	3242	3243	3203	3	30.334	0.000	-30.334	-0.000	-0.000	0.000
3243	3203	3204	3205	3	30.334	0.000	-30.334	-0.000	-0.000	0.000
3242	3206	3205	3204	3	30.334	0.000	-30.334	-0.000	-0.000	0.000
3231	3232	3227	3228	3	30.334	0.000	-30.334	-0.000	-0.000	0.000
3200	3199	3197	3196	3	30.334	0.000	-30.334	-0.000	-0.000	0.000
3201	3202	3190	3191	3	30.334	0.000	-30.334	-0.000	-0.000	0.000
3230	3231	3232	3227	3	30.334	0.000	-30.334	-0.000	-0.000	0.000
3199	3197	3196	3195	3	30.334	0.000	-30.334	-0.000	-0.000	0.000
3231	3232	3227	3226	3	30.334	0.000	-30.334	-0.000	-0.000	0.000
3229	3228	3227	3226	3	30.334	0.000	-30.334	-0.000	-0.000	0.000
3242	3243	3203	3186	3	30.334	0.000	-30.334	-0.000	-0.000	0.000
3205	3204	3203	3186	3	30.334	0.000	-30.334	-0.000	-0.000	0.000
3200	3199	3197	3198	3	0.0	0.0	0.0	-0.0	-0.0	0.0
3192	3191	3190	3189	3	30.334	0.000	-30.334	-0.000	-0.000	0.000
3201	3202	3190	3189	3	30.334	0.000	-30.334	-0.000	-0.000	0.000
3232	3227	3226	3215	3	0.000	0.000	0.000	-0.000	-0.000	0.000
3228	3227	3226	3215	3	0.000	0.000	0.000	-0.000	-0.000	0.000
3232	3227	3226	3225	3	0.000	0.000	0.000	-0.000	-0.000	0.000
3228	3227	3226	3225	3	0.000	0.000	0.000	-0.000	-0.000	0.000
3243	3203	3186	3187	3	5.184	35.932	-14.355	-26.761	-0.000	0.000
3204	3203	3186	3187	3	5.184	35.932	-14.355	-26.761	-0.000	0.000
3204	3203	3186	3185	3	5.184	35.932	-14.355	-26.761	-0.000	0.000
3243	3203	3186	3185	3	5.184	35.932	-14.355	-26.761	-0.000	0.000
3191	3190	3189	3188	3	12.552	0.000	-12.552	-0.000	-0.000	0.000
3202	3190	3189	3188	3	12.552	0.000	-12.552	-0.000	-0.000	0.000
3227	3226	3215	3214	3	6.322	-2.485	0.707	-4.544	-0.000	0.000
3227	3226	3215	3216	3	0.527	-6.397	-1.695	7.565	-0.000	0.000
3227	3226	3225	3219	3	1.715	2.845	1.046	-5.607	-0.000	0.000
3203	3186	3187	3188	3	1.789	3.492	0.536	-5.816	-0.000	0.000
3190	3189	3188	3187	3	1.715	2.845	1.046	-5.607	-0.000	0.000
3233	3226	3227	3228	3	0.000	0.000	0.000	-0.000	-0.000	0.000
3233	3226	3227	3232	3	0.000	0.000	0.000	-0.000	-0.000	0.000
3233	3226	3215	3214	3	6.322	-2.485	0.707	-4.544	-0.000	0.000
3233	3226	3215	3216	3	0.527	-6.397	-1.695	7.565	-0.000	0.000
3233	3226	3225	3219	3	1.715	2.845	1.046	-5.607	-0.000	0.000
3215	3214	3213	3212	3	21.738	2.408	-16.966	-7.180	-0.000	0.000
3220	3219	3216	3215	3	21.738	2.408	-16.966	-7.180	-0.000	0.000
3220	3219	3216	3217	3	-0.778	-2.335	0.000	3.113	-0.000	0.000
3241	3209	3208	3207	3	58.576	0.000	-58.576	-0.000	-0.000	0.000
3237	3211	3210	3209	3	58.576	0.000	-58.576	-0.000	-0.000	0.000
3241	3209	3210	3211	3	58.576	0.000	-58.576	-0.000	-0.000	0.000
3237	3211	3212	3213	3	58.576	0.000	-58.576	-0.000	-0.000	0.000
3226	3215	3214	3213	3	-0.778	-2.335	0.000	3.113	-0.000	0.000
3226	3215	3216	3219	3	58.576	0.000	-58.576	-0.000	-0.000	0.000
3226	3215	3216	3217	3	58.576	0.000	-58.576	-0.000	-0.000	0.000
3238	3241	3209	3208	3	0.527	-6.397	-1.695	7.565	-0.000	0.000
3238	3237	3211	3212	3	0.527	-6.397	-1.695	7.565	-0.000	0.000
3238	3237	3211	3210	3	0.527	-6.397	-1.695	7.565	-0.000	0.000
3238	3241	3209	3210	3	0.527	-6.397	-1.695	7.565	-0.000	0.000
3241	3238	3237	3211	3	2.301	-1.464	0.837	-1.674	-0.000	0.000
3240	3238	3241	3209	3	2.301	-1.464	0.837	-1.674	-0.000	0.000
3237	3238	3241	3209	3	2.301	-1.464	0.837	-1.674	-0.000	0.000
3239	3238	3241	3209	3	2.301	-1.464	0.837	-1.674	-0.000	0.000
3240	3238	3237	3211	3	2.301	-1.464	0.837	-1.674	-0.000	0.000
3239	3238	3237	3211	3	2.301	-1.464	0.837	-1.674	-0.000	0.000
3188	3187	3186	3185	3	1.789	3.492	0.536	-5.816	-0.000	0.000
3226	3225	3219	3216	3	30.334	0.000	-30.334	-0.000	-0.000	0.000
3226	3225	3219	3220	3	30.334	0.000	-30.334	-0.000	-0.000	0.000
3219	3216	3215	3214	3	58.576	0.000	-58.576	-0.000	-0.000	0.000
3219	3225	3226	3215	3	1.715	2.845	1.046	-5.607	-0.000	0.000
3217	3216	3215	3214	3	58.576	0.000	-58.576	-0.000	-0.000	0.000
3221	3220	3219	3216	3	58.576	0.000	-58.576	-0.000	-0.000	0.000
3223	3220	3219	3216	3	58.576	0.000	-58.576	-0.000	-0.000	0.000
3234	3233	3226	3227	3	0.000	0.000	0.000	-0.000	-0.000	0.000
3235	3233	3226	3227	3	0.000	0.000	0.000	-0.000	-0.000	0.000
3236	3233	3226	3227	3	0.000	0.000	0.000	-0.000	-0.000	0.000
3235	3233	3226	3215	3	0.000	0.000	0.000	-0.000	-0.000	0.000
3234	3233	3226	3215	3	0.000	0.000	0.000	-0.000	-0.000	0.000
3236	3233	3226	3215	3	0.000	0.000	0.000	-0.000	-0.000	0.000
3235	3233	3226	3225	3	1.130	3.389	0.000	-4.519	-0.000	0.000
3236	3233	3226	3225	3	1.130	3.389	0.000	-4.519	-0.000	0.000
3234	3233	3226	3225	3	1.130	3.389	0.000	-4.519	-0.000	0.000
3264	3210	3209	3208	3	58.576	0.000	-58.576	-0.000	-0.000	0.000
3264	3210	3211	3212	3	58.576	0.000	-58.576	-0.000	-0.000	0.000
3264	3210	3211	3237	3	58.576	0.000	-58.576	-0.000	-0.000	0.000
3264	3210	3209	3241	3	58.576	0.000	-58.576	-0.000	-0.000	0.000
3253	3195	3194	3193	3	30.334	0.000	-30.334	-0.000	-0.000	0.000
3252	3192	3193	3194	3	30.334	0.000	-30.334	-0.000	-0.000	0.000
3258	3201	3193	3194	3	30.334	0.000	-30.334	-0.000	-0.000	0.000
3257	3200	3194	3193	3	30.334	0.000	-30.334	-0.000	-0.000	0.000
3257	3200	3194	3195	3	30.334	0.000	-30.334	-0.000	-0.000	0.000
3253	3195	3194	3200	3	30.334	0.000	-30.334	-0.000	-0.000	0.000
3252	3192	3193	3201	3	30.334	0.000	-30.334	-0.000	-0.000	0.000
3258	3201	3193	3192	3	30.334	0.000	-30.334	-0.000	-0.000	0.000
3251	3191	3192	3193	3	30.334	0.000	-30.334	-0.000	-0.000	0.000
3259	3202	3201	3193	3	30.334	0.000	-30.334	-0.000	-0.000	0.000
3254	3196	3195	3194	3	30.334	0.000	-30.334	-0.000	-0.000	0.000
3256	3199	3200	3194	3	30.334	0.000	-30.334	-0.000	-0.000	0.000
3261	3205	3206	3207	3	30.334	0.000	-30.334	-0.000	-0.000	0.000
3283	3242	3206	3207	3	30.334	0.000	-30.334	-0.000	-0.000	0.000
3268	3228	3229	3230	3	30.334	0.000	-30.334	-0.000	-0.000	0.000
3256	3199	3197	3196	3	30.334	0.000	-30.334	-0.000	-0.000	0.000
3271	3231	3230	3229	3	30.334	0.000	-30.334	-0.000	-0.000	0.000
3283	3242	3243	3203	3	30.334	0.000	-30.334	-0.000	-0.000	0.000
3269	3229	3228	3227	3	30.334	0.000	-30.334	-0.000	-0.000	0.000
3284	3243	3242	3206	3	30.334	0.000	-30.334	-0.000	-0.000	0.000
3270	3230	3229	3228	3	30.334	0.000	-30.334	-0.000	-0.000	0.000
3259	3202	3190	3191	3	30.334	0.000	-30.334	-0.000	-0.000	0.000
3258	3201	3202	3190	3	30.334	0.000	-30.334	-0.000	-0.000	0.000
3283	3242	3206	3205	3	30.334	0.000	-30.334	-0.000	-0.000	0.000
3284	3243	3203	3204	3	30.334	0.000	-30.334	-0.000	-0.000	0.000
3271	3231	3232	3227	3	30.334	0.000	-30.334	-0.000	-0.000	0.000
3268	3228	3227	3232	3	30.334	0.000	-30.334	-0.000	-0.000	0.000
3253	3195	3196	3197	3	30.334	0.000	-30.334	-0.000	-0.000	0.000
3254	3196	3197	3199	3	30.334	0.000	-30.334	-0.000	-0.000	0.000
3251	3191	3190	3202	3	30.334	0.000	-30.334	-0.000	-0.000	0.000
3260	3204	3203	3243	3	30.334	0.000	-30.334	-0.000	-0.000	0.000
3260	3204	3205	3206	3	30.334	0.000	-30.334	-0.000	-0.000	0.000
3257	3200	3199	3197	3	30.334	0.000	-30.334	-0.000	-0.000	0.000
3261	3205	3206	3242	3	30.334	0.000	-30.334	-0.000	-0.000	0.000
3270	3230	3231	3232	3	30.334	0.000	-30.334	-0.000	-0.000	0.000
3272	3232	3231	3230	3	30.334	0.000	-30.334	-0.000	-0.000	0.000
3269	3229	3230	3231	3	30.334	0.000	-30.334	-0.000	-0.000	0.000
3272	3232	3227	3228	3	30.334	0.000	-30.334	-0.000	-0.000	0.000
3252	3192	3191	3190	3	30.334	0.000	-30.334	-0.000	-0.000	0.000
3261	3205	3204	3203	3	30.334	0.000	-30.334	-0.000	-0.000	0.000
3272	3232	3227	3226	3	30.334	0.000	-30.334	-0.000	-0.000	0.000
3268	3228	3227	3226	3	30.334	0.000	-30.334	-0.000	-0.000	0.000
3261	3205	3204	3260	3	30.334	0.000	-30.334	-0.000	-0.000	0.000
3284	3243	3242	3283	3	30.334	0.000	-30.334	-0.000	-0.000	0.000
3270	3230	3229	3269	3	30.334	0.000	-30.334	-0.000	-0.000	0.000
3254	3196	3195	3253	3	30.334	0.000	-30.334	-0.000	-0.000	0.000
3259	3202	3201	3258	3	30.334	0.000	-30.334	-0.000	-0.000	0.000
3257	3200	3199	3256	3	30.334	0.000	-30.334	-0.000	-0.000	0.000
3269	3229	3228	3268	3	30.334	0.000	-30.334	-0.000	-0.000	0.000
3252	3192	3191	3251	3	30.334	0.000	-30.334	-0.000	-0.000	0.000
3271	3231	3230	3270	3	30.334	0.000	-30.334	-0.000	-0.000	0.000
3272	3232	3231	3271	3	30.334	0.000	-30.334	-0.000	-0.000	0.000
3284	3243	3203	3186	3	30.334	0.000	-30.334	-0.000	-0.000	0.000
3260	3204	3203	3186	3	30.334	0.000	-30.334	-0.000	-0.000	0.000
3254	3196	3197	3198	3	0.0	0.0	0.0	-0.0	-0.0	0.0
3256	3199	3197	3198	3	0.0	0.0	0.0	-0.0	-0.0	0.0
3251	3191	3190	3189	3	30.334	0.000	-30.334	-0.000	-0.000	0.000
3259	3202	3190	3189	3	30.334	0.000	-30.334	-0.000	-0.000	0.000
3265	3212	3211	3210	3	58.576	0.000	-58.576	-0.000	-0.000	0.000
3265	3212	3213	3214	3	58.576	0.000	-58.576	-0.000	-0.000	0.000
3267	3214	3213	3212	3	58.576	0.000	-58.576	-0.000	-0.000	0.000
3266	3213	3212	3211	3	58.576	0.000	-58.576	-0.000	-0.000	0.000
3263	3208	3209	3210	3	58.576	0.000	-58.576	-0.000	-0.000	0.000
3262	3207	3208	3209	3	58.576	0.000	-58.576	-0.000	-0.000	0.000
3263	3208	3207	3206	3	58.576	0.000	-58.576	-0.000	-0.000	0.000
3266	3213	3214	3215	3	58.576	0.000	-58.576	-0.000	-0.000	0.000
3265	3212	3211	3237	3	58.576	0.000	-58.576	-0.000	-0.000	0.000
3263	3208	3209	3241	3	58.576	0.000	-58.576	-0.000	-0.000	0.000
3263	3208	3207	3262	3	58.576	0.000	-58.576	-0.000	-0.000	0.000
3266	3213	3212	3265	3	58.576	0.000	-58.576	-0.000	-0.000	0.000
3267	3214	3213	3266	3	58.576	0.000	-58.576	-0.000	-0.000	0.000
3262	3207	3206	3242	3	-0.778	-2.335	0.000	3.113	-0.000	0.000
3262	3207	3206	3205	3	-0.778	-2.335	0.000	3.113	-0.000	0.000
3267	3214	3215	3216	3	58.576	0.000	-58.576	-0.000	-0.000	0.000
3267	3214	3215	3226	3	58.576	0.000	-58.576	-0.000	-0.000	0.000
3281	3241	3209	3208	3	-0.778	-2.335	0.000	3.113	-0.000	0.000
3281	3241	3209	3210	3	-0.778	-2.335	0.000	3.113	-0.000	0.000
3282	3241	3209	3208	3	-0.778	-2.335	0.000	3.113	-0.000	0.000
3274	3237	3211	3212	3	-0.778	-2.335	0.000	3.113	-0.000	0.000
3282	3241	3209	3210	3	-0.778	-2.335	0.000	3.113	-0.000	0.000
3273	3237	3211	3210	3	-0.778	-2.335	0.000	3.113	-0.000	0.000
3274	3237	3211	3210	3	-0.778	-2.335	0.000	3.113	-0.000	0.000
3273	3237	3211	3212	3	-0.778	-2.335	0.000	3.113	-0.000	0.000
3276	3239	3238	3241	3	0.628	1.883	0.000	-2.510	-0.000	0.000
3275	3239	3238	3240	3	0.628	1.883	0.000	-2.510	-0.000	0.000
3275	3239	3238	3237	3	0.628	1.883	0.000	-2.510	-0.000	0.000
3277	3239	3238	3240	3	0.628	1.883	0.000	-2.510	-0.000	0.000
3279	3240	3238	3237	3	0.628	1.883	0.000	-2.510	-0.000	0.000
3278	3240	3238	3237	3	0.628	1.883	0.000	-2.510	-0.000	0.000
3277	3239	3238	3237	3	0.628	1.883	0.000	-2.510	-0.000	0.000
3279	3240	3238	3239	3	0.628	1.883	0.000	-2.510	-0.000	0.000
3276	3239	3238	3237	3	0.628	1.883	0.000	-2.510	-0.000	0.000
3281	3241	3238	3237	3	0.628	1.883	0.000	-2.510	-0.000	0.000
3281	3241	3238	3239	3	0.628	1.883	0.000	-2.510	-0.000	0.000
3274	3237	3238	3239	3	0.628	1.883	0.000	-2.510	-0.000	0.000
3277	3239	3238	3241	3	0.628	1.883	0.000	-2.510	-0.000	0.000
3274	3237	3238	3240	3	0.628	1.883	0.000	-2.510	-0.000	0.000
3282	3241	3238	3239	3	0.628	1.883	0.000	-2.510	-0.000	0.000
3278	3240	3238	3241	3	0.628	1.883	0.000	-2.510	-0.000	0.000
3279	3240	3238	3241	3	0.628	1.883	0.000	-2.510	-0.000	0.000
3280	3240	3238	3237	3	0.628	1.883	0.000	-2.510	-0.000	0.000
3273	3237	3238	3240	3	0.628	1.883	0.000	-2.510	-0.000	0.000
3273	3237	3238	3239	3	0.628	1.883	0.000	-2.510	-0.000	0.000
3278	3240	3238	3239	3	0.628	1.883	0.000	-2.510	-0.000	0.000
3274	3237	3238	3241	3	0.628	1.883	0.000	-2.510	-0.000	0.000
3282	3241	3238	3240	3	0.628	1.883	0.000	-2.510	-0.000	0.000
3276	3239	3238	3240	3	0.628	1.883	0.000	-2.510	-0.000	0.000
3275	3239	3238	3241	3	0.628	1.883	0.000	-2.510	-0.000	0.000
3282	3241	3238	3237	3	0.628	1.883	0.000	-2.510	-0.000	0.000
3273	3237	3238	3241	3	0.628	1.883	0.000	-2.510	-0.000	0.000
3280	3240	3238	3239	3	0.628	1.883	0.000	-2.510	-0.000	0.000
3281	3241	3238	3240	3	0.628	1.883	0.000	-2.510	-0.000	0.000
3280	3240	3238	3241	3	0.628	1.883	0.000	-2.510	-0.000	0.000
3249	3188	3187	3248	3	0.628	1.883	0.000	-2.510	-0.000	0.000
3250	3188	3187	3247	3	0.628	1.883	0.000	-2.510	-0.000	0.000
3249	3188	3187	3247	3	0.628	1.883	0.000	-2.510	-0.000	0.000
3250	3188	3187	3248	3	0.628	1.883	0.000	-2.510	-0.000	0.000
3250	3188	3187	3186	3	-4.096	5.088	2.966	-3.958	-0.000	0.000
3249	3188	3187	3186	3	-4.096	5.088	2.966	-3.958	-0.000	0.000
3248	3187	3188	3189	3	0.979	2.937	0.000	-3.916	-0.000	0.000
3247	3187	3188	3189	3	0.979	2.937	0.000	-3.916	-0.000	0.000
3248	3187	3186	3203	3	1.172	3.515	0.000	-4.686	-0.000	0.000
3244	3185	3186	3203	3	1.172	3.515	0.000	-4.686	-0.000	0.000
3247	3187	3186	3203	3	1.172	3.515	0.000	-4.686	-0.000	0.000
3245	3185	3186	3203	3	1.172	3.515	0.000	-4.686	-0.000	0.000
3246	3185	3186	3203	3	1.172	3.515	0.000	-4.686	-0.000	0.000
3247	3187	3186	3185	3	1.172	3.515	0.000	-4.686	-0.000	0.000
3245	3185	3186	3187	3	1.172	3.515	0.000	-4.686	-0.000	0.000
3248	3187	3186	3185	3	1.172	3.515	0.000	-4.686	-0.000	0.000
3246	3185	3186	3187	3	1.172	3.515	0.000	-4.686	-0.000	0.000
3244	3185	3186	3187	3	1.172	3.515	0.000	-4.686	-0.000	0.000
3249	3188	3189	3190	3	1.590	4.770	0.000	-6.360	-0.000	0.000
3250	3188	3189	3190	3	1.590	4.770	0.000	-6.360	-0.000	0.000
3255	3198	3197	3199	3	0.0	0.0	0.0	-0.0	-0.0	0.0
3255	3198	3197	3196	3	0.0	0.0	0.0	-0.0	-0.0	0.0
3198	3197	3196	3195	3	0.0	0.0	0.0	-0.0	-0.0	0.0
3225	3226	3215	3214	3	2.874	0.582	2.092	-5.548	-0.000	0.000
3225	3226	3215	3216	3	1.046	-1.046	0.000	-0.000	-0.000	0.000
3189	3188	3187	3186	3	16.736	-16.736	0.000	-0.000	-0.000	0.000
3225	3219	3216	3215	3	1.046	-1.046	0.000	-0.000	-0.000	0.000
3225	3219	3216	3217	3	9.079	0.000	-9.079	-0.000	-0.000	0.000
3294	3293	3292	3291	3	30.334	0.000	-30.334	-0.000	-0.000	0.000
3293	3301	3302	3290	3	30.334	0.000	-30.334	-0.000	-0.000	0.000
3293	3292	3291	3290	3	30.334	0.000	-30.334	-0.000	-0.000	0.000
3314	3313	3312	3311	3	21.738	2.408	-16.966	-7.180	-0.000	0.000
3310	3309	3308	3307	3	21.738	2.408	-16.966	-7.180	-0.000	0.000
3311	3310	3309	3308	3	21.738	2.408	-16.966	-7.180	-0.000	0.000
3312	3311	3310	3309	3	21.738	2.408	-16.966	-7.180	-0.000	0.000
3313	3312	3311	3310	3	21.738	2.408	-16.966	-7.180	-0.000	0.000
3309	3308	3307	3306	3	58.576	0.000	-58.576	-0.000	-0.000	0.000
3308	3307	3306	3305	3	16.027	-4.391	-14.029	2.393	-0.000	0.000
3307	3306	3305	3304	3	30.334	0.000	-30.334	-0.000	-0.000	0.000
3316	3315	3314	3313	3	58.576	0.000	-58.576	-0.000	-0.000	0.000
3301	3293	3294	3300	3	9.079	0.000	-9.079	-0.000	-0.000	0.000
3300	3294	3293	3292	3	9.079	0.000	-9.079	-0.000	-0.000	0.000
3301	3293	3294	3295	3	9.079	0.000	-9.079	-0.000	-0.000	0.000
3295	3294	3293	3292	3	9.079	0.000	-9.079	-0.000	-0.000	0.000
3300	3294	3295	3296	3	30.334	0.000	-30.334	-0.000	-0.000	0.000
3301	3293	3292	3291	3	30.334	0.000	-30.334	-0.000	-0.000	0.000
3299	3300	3294	3293	3	30.334	0.000	-30.334	-0.000	-0.000	0.000
3302	3301	3293	3294	3	30.334	0.000	-30.334	-0.000	-0.000	0.000
3296	3295	3294	3293	3	30.334	0.000	-30.334	-0.000	-0.000	0.000
3299	3300	3294	3295	3	30.334	0.000	-30.334	-0.000	-0.000	0.000
3302	3301	3293	3292	3	30.334	0.000	-30.334	-0.000	-0.000	0.000
3342	3306	3307	3308	3	16.027	-4.391	-14.029	2.393	-0.000	0.000
3297	3299	3300	3294	3	30.334	0.000	-30.334	-0.000	-0.000	0.000
3297	3296	3295	3294	3	30.334	0.000	-30.334	-0.000	-0.000	0.000
3343	3342	3306	3307	3	30.334	0.000	-30.334	-0.000	-0.000	0.000
3332	3327	3328	3329	3	30.334	0.000	-30.334	-0.000	-0.000	0.000
3343	3342	3306	3305	3	30.334	0.000	-30.334	-0.000	-0.000	0.000
3302	3290	3291	3292	3	30.334	0.000	-30.334	-0.000	-0.000	0.000
3342	3343	3303	3304	3	30.334	0.000	-30.334	-0.000	-0.000	0.000
3332	3331	3330	3329	3	30.334	0.000	-30.334	-0.000	-0.000	0.000
3331	3330	3329	3328	3	30.334	0.000	-30.334	-0.000	-0.000	0.000
3330	3329	3328	3327	3	30.334	0.000	-30.334	-0.000	-0.000	0.000
3306	3305	3304	3303	3	30.334	0.000	-30.334	-0.000	-0.000	0.000
3306	3342	3343	3303	3	30.334	0.000	-30.334	-0.000	-0.000	0.000
3343	3303	3304	3305	3	30.334	0.000	-30.334	-0.000	-0.000	0.000
3342	3306	3305	3304	3	30.334	0.000	-30.334	-0.000	-0.000	0.000
3331	3332	3327	3328	3	30.334	0.000	-30.334	-0.000	-0.000	0.000
3300	3299	3297	3296	3	30.334	0.000	-30.334	-0.000	-0.000	0.000
3301	3302	3290	3291	3	30.334	0.000	-30.334	-0.000	-0.000	0.000
3330	3331	3332	3327	3	30.334	0.000	-30.334	-0.000	-0.000	0.000
3299	3297	3296	3295	3	30.334	0.000	-30.334	-0.000	-0.000	0.000
3331	3332	3327	3326	3	30.334	0.000	-30.334	-0.000	-0.000	0.000
3329	3328	3327	3326	3	30.334	0.000	-30.334	-0.000	-0.000	0.000
3342	3343	3303	3286	3	30.334	0.000	-30.334	-0.000	-0.000	0.000
3305	3304	3303	3286	3	30.334	0.000	-30.334	-0.000	-0.000	0.000
3300	3299	3297	3298	3	0.0	0.0	0.0	-0.0	-0.0	0.0
3292	3291	3290	3289	3	30.334	0.000	-30.334	-0.000	-0.000	0.000
3301	3302	3290	3289	3	30.334	0.000	-30.334	-0.000	-0.000	0.000
3332	3327	3326	3315	3	0.000	0.000	0.000	-0.000	-0.000	0.000
3328	3327	3326	3315	3	0.000	0.000	0.000	-0.000	-0.000	0.000
3332	3327	3326	3325	3	0.000	0.000	0.000	-0.000	-0.000	0.000
3328	3327	3326	3325	3	0.000	0.000	0.000	-0.000	-0.000	0.000
3343	3303	3286	3287	3	5.184	35.932	-14.355	-26.761	-0.000	0.000
3304	3303	3286	3287	3	5.184	35.932	-14.355	-26.761	-0.000	0.000
3304	3303	3286	3285	3	5.184	35.932	-14.355	-26.761	-0.000	0.000
3343	3303	3286	3285	3	5.184	35.932	-14.355	-26.761	-0.000	0.000
3291	3290	3289	3288	3	12.552	0.000	-12.552	-0.000	-0.000	0.000
3302	3290	3289	3288	3	12.552	0.000	-12.552	-0.000	-0.000	0.000
3327	3326	3315	3314	3	6.322	-2.485	0.707	-4.544	-0.000	0.000
3327	3326	3315	3316	3	0.527	-6.397	-1.695	7.565	-0.000	0.000
3327	3326	3325	3319	3	1.715	2.845	1.046	-5.607	-0.000	0.000
3303	3286	3287	3288	3	1.789	3.492	0.536	-5.816	-0.000	0.000
3290	3289	3288	3287	3	1.715	2.845	1.046	-5.607	-0.000	0.000
3333	3326	3327	3328	3	0.000	0.000	0.000	-0.000	-0.000	0.000
3333	3326	3327	3332	3	0.000	0.000	0.000	-0.000	-0.000	0.000
3333	3326	3315	3314	3	6.322	-2.485	0.707	-4.544	-0.000	0.000
3333	3326	3315	3316	3	0.527	-6.397	-1.695	7.565	-0.000	0.000
3333	3326	3325	3319	3	1.715	2.845	1.046	-5.607	-0.000	0.000
3315	3314	3313	3312	3	21.738	2.408	-16.966	-7.180	-0.000	0.000
3320	3319	3316	3315	3	21.738	2.408	-16.966	-7.180	-0.000	0.000
3320	3319	3316	3317	3	-0.778	-2.335	0.000	3.113	-0.000	0.000
3341	3309	3308	3307	3	58.576	0.000	-58.576	-0.000	-0.000	0.000
3337	3311	3310	3309	3	58.576	0.000	-58.576	-0.000	-0.000	0.000
3341	3309	3310	3311	3	58.576	0.000	-58.576	-0.000	-0.000	0.000
3337	3311	3312	3313	3	58.576	0.000	-58.576	-0.000	-0.000	0.000
3326	3315	3314	3313	3	-0.778	-2.335	0.000	3.113	-0.000	0.000
3326	3315	3316	3319	3	58.576	0.000	-58.576	-0.000	-0.000	0.000
3326	3315	3316	3317	3	58.576	0.000	-58.576	-0.000	-0.000	0.000
3338	3341	3309	3308	3	0.527	-6.397	-1.695	7.565	-0.000	0.000
3338	3337	3311	3312	3	0.527	-6.397	-1.695	7.565	-0.000	0.000
3338	3337	3311	3310	3	0.527	-6.397	-1.695	7.565	-0.000	0.000
3338	3341	3309	3310	3	0.527	-6.397	-1.695	7.565	-0.000	0.000
3341	3338	3337	3311	3	2.301	-1.464	0.837	-1.674	-0.000	0.000
3340	3338	3341	3309	3	2.301	-1.464	0.837	-1.674	-0.000	0.000
3337	3338	3341	3309	3	2.301	-1.464	0.837	-1.674	-0.000	0.000
3339	3338	3341	3309	3	2.301	-1.464	0.837	-1.674	-0.000	0.000
3340	3338	3337	3311	3	2.301	-1.464	0.837	-1.674	-0.000	0.000
3339	3338	3337	3311	3	2.301	-1.464	0.837	-1.674	-0.000	0.000
3288	3287	3286	3285	3	1.789	3.492	0.536	-5.816	-0.000	0.000
3326	3325	3319	3316	3	30.334	0.000	-30.334	-0.000	-0.000	0.000
3326	3325	3319	3320	3	30.334	0.000	-30.334	-0.000	-0.000	0.000
3319	3316	3315	3314	3	58.576	0.000	-58.576	-0.000	-0.000	0.000
3319	3325	3326	3315	3	1.715	2.845	1.046	-5.607	-0.000	0.000
3317	3316	3315	3314	3	58.576	0.000	-58.576	-0.000	-0.000	0.000
3321	3320	3319	3316	3	58.576	0.000	-58.576	-0.000	-0.000	0.000
3323	3320	3319	3316	3	58.576	0.000	-58.576	-0.000	-0.000	0.000
3334	3333	3326	3327	3	0.000	0.000	0.000	-0.000	-0.000	0.000
3335	3333	3326	3327	3	0.000	0.000	0.000	-0.000	-0.000	0.000
3336	3333	3326	3327	3	0.000	0.000	0.000	-0.000	-0.000	0.000
3335	3333	3326	3315	3	0.000	0.000	0.000	-0.000	-0.000	0.000
3334	3333	3326	3315	3	0.000	0.000	0.000	-0.000	-0.000	0.000
3336	3333	3326	3315	3	0.000	0.000	0.000	-0.000	-0.000	0.000
3335	3333	3326	3325	3	1.130	3.389	0.000	-4.519	-0.000	0.000
3336	3333	3326	3325	3	1.130	3.389	0.000	-4.519	-0.000	0.000
3334	3333	3326	3325	3	1.130	3.389	0.000	-4.519	-0.000	0.000
3364	3310	3309	3308	3	58.576	0.000	-58.576	-0.000	-0.000	0.000
3364	3310	3311	3312	3	58.576	0.000	-58.576	-0.000	-0.000	0.000
3364	3310	3311	3337	3	58.576	0.000	-58.576	-0.000	-0.000	0.000
3364	3310	3309	3341	3	58.576	0.000	-58.576	-0.000	-0.000	0.000
3353	3295	3294	3293	3	30.334	0.000	-30.334	-0.000	-0.000	0.000
3352	3292	3293	3294	3	30.334	0.000	-30.334	-0.000	-0.000	0.000
3358	3301	3293	3294	3	30.334	0.000	-30.334	-0.000	-0.000	0.000
3357	3300	3294	3293	3	30.334	0.000	-30.334	-0.000	-0.000	0.000
3357	3300	3294	3295	3	30.334	0.000	-30.334	-0.000	-0.000	0.000
3353	3295	3294	3300	3	30.334	0.000	-30.334	-0.000	-0.000	0.000
3352	3292	3293	3301	3	30.334	0.000	-30.334	-0.000	-0.000	0.000
3358	3301	3293	3292	3	30.334	0.000	-30.334	-0.000	-0.000	0.000
3351	3291	3292	3293	3	30.334	0.000	-30.334	-0.000	-0.000	0.000
3359	3302	3301	3293	3	30.334	0.000	-30.334	-0.000	-0.000	0.000
3354	3296	3295	3294	3	30.334	0.000	-30.334	-0.000	-0.000	0.000
3356	3299	3300	3294	3	30.334	0.000	-30.334	-0.000	-0.000	0.000
3361	3305	3306	3307	3	30.334	0.000	-30.334	-0.000	-0.000	0.000
3383	3342	3306	3307	3	30.334	0.000	-30.334	-0.000	-0.000	0.000
3368	3328	3329	3330	3	30.334	0.000	-30.334	-0.000	-0.000	0.000
3356	3299	3297	3296	3	30.334	0.000	-30.334	-0.000	-0.000	0.000
3371	3331	3330	3329	3	30.334	0.000	-30.334	-0.000	-0.000	0.000
3383	3342	3343	3303	3	30.334	0.000	-30.334	-0.000	-0.000	0.000
3369	3329	3328	3327	3	30.334	0.000	-30.334	-0.000	-0.000	0.000
3384	3343	3342	3306	3	30.334	0.000	-30.334	-0.000	-0.000	0.000
3370	3330	3329	3328	3	30.334	0.000	-30.334	-0.000	-0.000	0.000
3359	3302	3290	3291	3	30.334	0.000	-30.334	-0.000	-0.000	0.000
3358	3301	3302	3290	3	30.334	0.000	-30.334	-0.000	-0.000	0.000
3383	3342	3306	3305	3	30.334	0.000	-30.334	-0.000	-0.000	0.000
3384	3343	3303	3304	3	30.334	0.000	-30.334	-0.000	-0.000	0.000
3371	3331	3332	3327	3	30.334	0.000	-30.334	-0.000	-0.000	0.000
3368	3328	3327	3332	3	30.334	0.000	-30.334	-0.000	-0.000	0.000
3353	3295	3296	3297	3	30.334	0.000	-30.334	-0.000	-0.000	0.000
3354	3296	3297	3299	3	30.334	0.000	-30.334	-0.000	-0.000	0.000
3351	3291	3290	3302	3	30.334	0.000	-30.334	-0.000	-0.000	0.000
3360	3304	3303	3343	3	30.334	0.000	-30.334	-0.000	-0.000	0.000
3360	3304	3305	3306	3	30.334	0.000	-30.334	-0.000	-0.000	0.000
3357	3300	3299	3297	3	30.334	0.000	-30.334	-0.000	-0.000	0.000
3361	3305	3306	3342	3	30.334	0.000	-30.334	-0.000	-0.000	0.000
3370	3330	3331	3332	3	30.334	0.000	-30.334	-0.000	-0.000	0.000
3372	3332	3331	3330	3	30.334	0.000	-30.334	-0.000	-0.000	0.000
3369	3329	3330	3331	3	30.334	0.000	-30.334	-0.000	-0.000	0.000
3372	3332	3327	3328	3	30.334	0.000	-30.334	-0.000	-0.000	0.000
3352	3292	3291	3290	3	30.334	0.000	-30.334	-0.000	-0.000	0.000
3361	3305	3304	3303	3	30.334	0.000	-30.334	-0.000	-0.000	0.000
3372	3332	3327	3326	3	30.334	0.000	-30.334	-0.000	-0.000	0.000
3368	3328	3327	3326	3	30.334	0.000	-30.334	-0.000	-0.000	0.000
3361	3305	3304	3360	3	30.334	0.000	-30.334	-0.000	-0.000	0.000
3384	3343	3342	3383	3	30.334	0.000	-30.334	-0.000	-0.000	0.000
3370	3330	3329	3369	3	30.334	0.000	-30.334	-0.000	-0.000	0.000
3354	3296	3295	3353	3	30.334	0.000	-30.334	-0.000	-0.000	0.000
3359	3302	3301	3358	3	30.334	0.000	-30.334	-0.000	-0.000	0.000
3357	3300	3299	3356	3	30.334	0.000	-30.334	-0.000	-0.000	0.000
3369	3329	3328	3368	3	30.334	0.000	-30.334	-0.000	-0.000	0.000
3352	3292	3291	3351	3	30.334	0.000	-30.334	-0.000	-0.000	0.000
3371	3331	3330	3370	3	30.334	0.000	-30.334	-0.000	-0.000	0.000
3372	3332	3331	3371	3	30.334	0.000	-30.334	-0.000	-0.000	0.000
3384	3343	3303	3286	3	30.334	0.000	-30.334	-0.000	-0.000	0.000
3360	3304	3303	3286	3	30.334	0.000	-30.334	-0.000	-0.000	0.000
3354	3296	3297	3298	3	0.0	0.0	0.0	-0.0	-0.0	0.0
3356	3299	3297	3298	3	0.0	0.0	0.0	-0.0	-0.0	0.0
3351	3291	3290	3289	3	30.334	0.000	-30.334	-0.000	-0.000	0.000
3359	3302	3290	3289	3	30.334	0.000	-30.334	-0.000	-0.000	0.000
3365	3312	3311	3310	3	58.576	0.000	-58.576	-0.000	-0.000	0.000
3365	3312	3313	3314	3	58.576	0.000	-58.576	-0.000	-0.000	0.000
3367	3314	3313	3312	3	58.576	0.000	-58.576	-0.000	-0.000	0.000
3366	3313	3312	3311	3	58.576	0.000	-58.576	-0.000	-0.000	0.000
3363	3308	3309	3310	3	58.576	0.000	-58.576	-0.000	-0.000	0.000
3362	3307	3308	3309	3	58.576	0.000	-58.576	-0.000	-0.000	0.000
3363	3308	3307	3306	3	58.576	0.000	-58.576	-0.000	-0.000	0.000
3366	3313	3314	3315	3	58.576	0.000	-58.576	-0.000	-0.000	0.000
3365	3312	3311	3337	3	58.576	0.000	-58.576	-0.000	-0.000	0.000
3363	3308	3309	3341	3	58.576	0.000	-58.576	-0.000	-0.000	0.000
3363	3308	3307	3362	3	58.576	0.000	-58.576	-0.000	-0.000	0.000
3366	3313	3312	3365	3	58.576	0.000	-58.576	-0.000	-0.000	0.000
3367	3314	3313	3366	3	58.576	0.000	-58.576	-0.000	-0.000	0.000
3362	3307	3306	3342	3	-0.778	-2.335	0.000	3.113	-0.000	0.000
3362	3307	3306	3305	3	-0.778	-2.335	0.000	3.113	-0.000	0.000
3367	3314	3315	3316	3	58.576	0.000	-58.576	-0.000	-0.000	0.000
3367	3314	3315	3326	3	58.576	0.000	-58.576	-0.000	-0.000	0.000
3381	3341	3309	3308	3	-0.778	-2.335	0.000	3.113	-0.000	0.000
3381	3341	3309	3310	3	-0.778	-2.335	0.000	3.113	-0.000	0.000
3382	3341	3309	3308	3	-0.778	-2.335	0.000	3.113	-0.000	0.000
3374	3337	3311	3312	3	-0.778	-2.335	0.000	3.113	-0.000	0.000
3382	3341	3309	3310	3	-0.778	-2.335	0.000	3.113	-0.000	0.000
3373	3337	3311	3310	3	-0.778	-2.335	0.000	3.113	-0.000	0.000
3374	3337	3311	3310	3	-0.778	-2.335	0.000	3.113	-0.000	0.000
3373	3337	3311	3312	3	-0.778	-2.335	0.000	3.113	-0.000	0.000
3376	3339	3338	3341	3	0.628	1.883	0.000	-2.510	-0.000	0.000
3375	3339	3338	3340	3	0.628	1.883	0.000	-2.510	-0.000	0.000
3375	3339	3338	3337	3	0.628	1.883	0.000	-2.510	-0.000	0.000
3377	3339	3338	3340	3	0.628	1.883	0.000	-2.510	-0.000	0.000
3379	3340	3338	3337	3	0.628	1.883	0.000	-2.510	-0.000	0.000
3378	3340	3338	3337	3	0.628	1.883	0.000	-2.510	-0.000	0.000
3377	3339	3338	3337	3	0.628	1.883	0.000	-2.510	-0.000	0.000
3379	3340	3338	3339	3	0.628	1.883	0.000	-2.510	-0.000	0.000
3376	3339	3338	3337	3	0.628	1.883	0.000	-2.510	-0.000	0.000
3381	3341	3338	3337	3	0.628	1.883	0.000	-2.510	-0.000	0.000
3381	3341	3338	3339	3	0.628	1.883	0.000	-2.510	-0.000	0.000
3374	3337	3338	3339	3	0.628	1.883	0.000	-2.510	-0.000	0.000
3377	3339	3338	3341	3	0.628	1.883	0.000	-2.510	-0.000	0.000
3374	3337	3338	3340	3	0.628	1.883	0.000	-2.510	-0.000	0.000
3382	3341	3338	3339	3	0.628	1.883	0.000	-2.510	-0.000	0.000
3378	3340	3338	3341	3	0.628	1.883	0.000	-2.510	-0.000	0.000
3379	3340	3338	3341	3	0.628	1.883	0.000	-2.510	-0.000	0.000
3380	3340	3338	3337	3	0.628	1.883	0.000	-2.510	-0.000	0.000
3373	3337	3338	3340	3	0.628	1.883	0.000	-2.510	-0.000	0.000
3373	3337	3338	3339	3	0.628	1.883	0.000	-2.510	-0.000	0.000
3378	3340	3338	3339	3	0.628	1.883	0.000	-2.510	-0.000	0.000
3374	3337	3338	3341	3	0.628	1.883	0.000	-2.510	-0.000	0.000
3382	3341	3338	3340	3	0.628	1.883	0.000	-2.510	-0.000	0.000
3376	3339	3338	3340	3	0.628	1.883	0.000	-2.510	-0.000	0.000
3375	3339	3338	3341	3	0.628	1.883	0.000	-2.510	-0.000	0.000
3382	3341	3338	3337	3	0.628	1.883	0.000	-2.510	-0.000	0.000
3373	3337	3338	3341	3	0.628	1.883	0.000	-2.510	-0.000	0.000
3380	3340	3338	3339	3	0.628	1.883	0.000	-2.510	-0.000	0.000
3381	3341	3338	3340	3	0.628	1.883	0.000	-2.510	-0.000	0.000
3380	3340	3338	3341	3	0.628	1.883	0.000	-2.510	-0.000	0.000
3349	3288	3287	3348	3	0.628	1.883	0.000	-2.510	-0.000	0.000
3350	3288	3287	3347	3	0.628	1.883	0.000	-2.510	-0.000	0.000
3349	3288	3287	3347	3	0.628	1.883	0.000	-2.510	-0.000	0.000
3350	3288	3287	3348	3	0.628	1.883	0.000	-2.510	-0.000	0.000
3350	3288	3287	3286	3	-4.096	5.088	2.966	-3.958	-0.000	0.000
3349	3288	3287	3286	3	-4.096	5.088	2.966	-3.958	-0.000	0.000
3348	3287	3288	3289	3	0.979	2.937	0.000	-3.916	-0.000	0.000
3347	3287	3288	3289	3	0.979	2.937	0.000	-3.916	-0.000	0.000
3348	3287	3286	3303	3	1.172	3.515	0.000	-4.686	-0.000	0.000
3344	3285	3286	3303	3	1.172	3.515	0.000	-4.686	-0.000	0.000
3347	3287	3286	3303	3	1.172	3.515	0.000	-4.686	-0.000	0.000
3345	3285	3286	3303	3	1.172	3.515	0.000	-4.686	-0.000	0.000
3346	3285	3286	3303	3	1.172	3.515	0.000	-4.686	-0.000	0.000
3347	3287	3286	3285	3	1.172	3.515	0.000	-4.686	-0.000	0.000
3345	3285	3286	3287	3	1.172	3.515	0.000	-4.686	-0.000	0.000
3348	3287	3286	3285	3	1.172	3.515	0.000	-4.686	-0.000	0.000
3346	3285	3286	3287	3	1.172	3.515	0.000	-4.686	-0.000	0.000
3344	3285	3286	3287	3	1.172	3.515	0.000	-4.686	-0.000	0.000
3349	3288	3289	3290	3	1.590	4.770	0.000	-6.360	-0.000	0.000
3350	3288	3289	3290	3	1.590	4.770	0.000	-6.360	-0.000	0.000
3355	3298	3297	3299	3	0.0	0.0	0.0	-0.0	-0.0	0.0
3355	3298	3297	3296	3	0.0	0.0	0.0	-0.0	-0.0	0.0
3298	3297	3296	3295	3	0.0	0.0	0.0	-0.0	-0.0	0.0
3325	3326	3315	3314	3	2.874	0.582	2.092	-5.548	-0.000	0.000
3325	3326	3315	3316	3	1.046	-1.046	0.000	-0.000	-0.000	0.000
3289	3288	3287	3286	3	16.736	-16.736	0.000	-0.000	-0.000	0.000
3325	3319	3316	3315	3	1.046	-1.046	0.000	-0.000	-0.000	0.000
3325	3319	3316	3317	3	9.079	0.000	-9.079	-0.000	-0.000	0.000
3394	3393	3392	3391	3	30.334	0.000	-30.334	-0.000	-0.000	0.000
3393	3401	3402	3390	3	30.334	0.000	-30.334	-0.000	-0.000	0.000
3393	3392	3391	3390	3	30.334	0.000	-30.334	-0.000	-0.000	0.000
3414	3413	3412	3411	3	21.738	2.408	-16.966	-7.180	-0.000	0.000
3410	3409	3408	3407	3	21.738	2.408	-16.966	-7.180	-0.000	0.000
3411	3410	3409	3408	3	21.738	2.408	-16.966	-7.180	-0.000	0.000
3412	3411	3410	3409	3	21.738	2.408	-16.966	-7.180	-0.000	0.000
3413	3412	3411	3410	3	21.738	2.408	-16.966	-7.180	-0.000	0.000
3409	3408	3407	3406	3	58.576	0.000	-58.576	-0.000	-0.000	0.000
3408	3407	3406	3405	3	16.027	-4.391	-14.029	2.393	-0.000	0.000
3407	3406	3405	3404	3	30.334	0.000	-30.334	-0.000	-0.000	0.000
3416	3415	3414	3413	3	58.576	0.000	-58.576	-0.000	-0.000	0.000
3401	3393	3394	3400	3	9.079	0.000	-9.079	-0.000	-0.000	0.000
3400	3394	3393	3392	3	9.079	0.000	-9.079	-0.000	-0.000	0.000
3401	3393	3394	3395	3	9.079	0.000	-9.079	-0.000	-0.000	0.000
3395	3394	3393	3392	3	9.079	0.000	-9.079	-0.000	-0.000	0.000
3400	3394	3395	3396	3	30.334	0.000	-30.334	-0.000	-0.000	0.000
3401	3393	3392	3391	3	30.334	0.000	-30.334	-0.000	-0.000	0.000
3399	3400	3394	3393	3	30.334	0.000	-30.334	-0.000	-0.000	0.000
3402	3401	3393	3394	3	30.334	0.000	-30.334	-0.000	-0.000	0.000
3396	3395	3394	3393	3	30.334	0.000	-30.334	-0.000	-0.000	0.000
3399	3400	3394	3395	3	30.334	0.000	-30.334	-0.000	-0.000	0.000
3402	3401	3393	3392	3	30.334	0.000	-30.334	-0.000	-0.000	0.000
3442	3406	3407	3408	3	16.027	-4.391	-14.029	2.393	-0.000	0.000
3397	3399	3400	3394	3	30.334	0.000	-30.334	-0.000	-0.000	0.000
3397	3396	3395	3394	3	30.334	0.000	-30.334	-0.000	-0.000	0.000
3443	3442	3406	3407	3	30.334	0.000	-30.334	-0.000	-0.000	0.000
3432	3427	3428	3429	3	30.334	0.000	-30.334	-0.000	-0.000	0.000
3443	3442	3406	3405	3	30.334	0.000	-30.334	-0.000	-0.000	0.000
3402	3390	3391	3392	3	30.334	0.000	-30.334	-0.000	-0.000	0.000
3442	3443	3403	3404	3	30.334	0.000	-30.334	-0.000	-0.000	0.000
3432	3431	3430	3429	3	30.334	0.000	-30.334	-0.000	-0.000	0.000
3431	3430	3429	3428	3	30.334	0.000	-30.334	-0.000	-0.000	0.000
3430	3429	3428	3427	3	30.334	0.000	-30.334	-0.000	-0.000	0.000
3406	3405	3404	3403	3	30.334	0.000	-30.334	-0.000	-0.000	0.000
3406	3442	3443	3403	3	30.334	0.000	-30.334	-0.000	-0.000	0.000
3443	3403	3404	3405	3	30.334	0.000	-30.334	-0.000	-0.000	0.000
3442	3406	3405	3404	3	30.334	0.000	-30.334	-0.000	-0.000	0.000
3431	3432	3427	3428	3	30.334	0.000	-30.334	-0.000	-0.000	0.000
3400	3399	3397	3396	3	30.334	0.000	-30.334	-0.000	-0.000	0.000
3401	3402	3390	3391	3	30.334	0.000	-30.334	-0.000	-0.000	0.000
3430	3431	3432	3427	3	30.334	0.000	-30.334	-0.000	-0.000	0.000
3399	3397	3396	3395	3	30.334	0.000	-30.334	-0.000	-0.000	0.000
3431	3432	3427	3426	3	30.334	0.000	-30.334	-0.000	-0.000	0.000
3429	3428	3427	3426	3	30.334	0.000	-30.334	-0.000	-0.000	0.000
3442	3443	3403	3386	3	30.334	0.000	-30.334	-0.000	-0.000	0.000
3405	3404	3403	3386	3	30.334	0.000	-30.334	-0.000	-0.000	0.000
3400	3399	3397	3398	3	0.0	0.0	0.0	-0.0	-0.0	0.0
3392	3391	3390	3389	3	30.334	0.000	-30.334	-0.000	-0.000	0.000
3401	3402	3390	3389	3	30.334	0.000	-30.334	-0.000	-0.000	0.000
3432	3427	3426	3415	3	0.000	0.000	0.000	-0.000	-0.000	0.000
3428	3427	3426	3415	3	0.000	0.000	0.000	-0.000	-0.000	0.000
3432	3427	3426	3425	3	0.000	0.000	0.000	-0.000	-0.000	0.000
3428	3427	3426	3425	3	0.000	0.000	0.000	-0.000	-0.000	0.000
3443	3403	3386	3387	3	5.184	35.932	-14.355	-26.761	-0.000	0.000
3404	3403	3386	3387	3	5.184	35.932	-14.355	-26.761	-0.000	0.000
3404	3403	3386	3385	3	5.184	35.932	-14.355	-26.761	-0.000	0.000
3443	3403	3386	3385	3	5.184	35.932	-14.355	-26.761	-0.000	0.000
3391	3390	3389	3388	3	12.552	0.000	-12.552	-0.000	-0.000	0.000
3402	3390	3389	3388	3	12.552	0.000	-12.552	-0.000	-0.000	0.000
3427	3426	3415	3414	3	6.322	-2.485	0.707	-4.544	-0.000	0.000
3427	3426	3415	3416	3	0.527	-6.397	-1.695	7.565	-0.000	0.000
3427	3426	3425	3419	3	1.715	2.845	1.046	-5.607	-0.000	0.000
3403	3386	3387	3388	3	1.789	3.492	0.536	-5.816	-0.000	0.000
3390	3389	3388	3387	3	1.715	2.845	1.046	-5.607	-0.000	0.000
3433	3426	3427	3428	3	0.000	0.000	0.000	-0.000	-0.000	0.000
3433	3426	3427	3432	3	0.000	0.000	0.000	-0.000	-0.000	0.000
3433	3426	3415	3414	3	6.322	-2.485	0.707	-4.544	-0.000	0.000
3433	3426	3415	3416	3	0.527	-6.397	-1.695	7.565	-0.000	0.000
3433	3426	3425	3419	3	1.715	2.845	1.046	-5.607	-0.000	0.000
3415	3414	3413	3412	3	21.738	2.408	-16.966	-7.180	-0.000	0.000
3420	3419	3416	3415	3	21.738	2.408	-16.966	-7.180	-0.000	0.000
3420	3419	3416	3417	3	-0.778	-2.335	0.000	3.113	-0.000	0.000
3441	3409	3408	3407	3	58.576	0.000	-58.576	-0.000	-0.000	0.000
3437	3411	3410	3409	3	58.576	0.000	-58.576	-0.000	-0.000	0.000
3441	3409	3410	3411	3	58.576	0.000	-58.576	-0.000	-0.000	0.000
3437	3411	3412	3413	3	58.576	0.000	-58.576	-0.000	-0.000	0.000
3426	3415	3414	3413	3	-0.778	-2.335	0.000	3.113	-0.000	0.000
3426	3415	3416	3419	3	58.576	0.000	-58.576	-0.000	-0.000	0.000
3426	3415	3416	3417	3	58.576	0.000	-58.576	-0.000	-0.000	0.000
3438	3441	3409	3408	3	0.527	-6.397	-1.695	7.565	-0.000	0.000
3438	3437	3411	3412	3	0.527	-6.397	-1.695	7.565	-0.000	0.000
3438	3437	3411	3410	3	0.527	-6.397	-1.695	7.565	-0.000	0.000
3438	3441	3409	3410	3	0.527	-6.397	-1.695	7.565	-0.000	0.000
3441	3438	3437	3411	3	2.301	-1.464	0.837	-1.674	-0.000	0.000
3440	3438	3441	3409	3	2.301	-1.464	0.837	-1.674	-0.000	0.000
3437	3438	3441	3409	3	2.301	-1.464	0.837	-1.674	-0.000	0.000
3439	3438	3441	3409	3	2.301	-1.464	0.837	-1.674	-0.000	0.000
3440	3438	3437	3411	3	2.301	-1.464	0.837	-1.674	-0.000	0.000
3439	3438	3437	3411	3	2.301	-1.464	0.837	-1.674	-0.000	0.000
3388	3387	3386	3385	3	1.789	3.492	0.536	-5.816	-0.000	0.000
3426	3425	3419	3416	3	30.334	0.000	-30.334	-0.000	-0.000	0.000
3426	3425	3419	3420	3	30.334	0.000	-30.334	-0.000	-0.000	0.000
3419	3416	3415	3414	3	58.576	0.000	-58.576	-0.000	-0.000	0.000
3419	3425	3426	3415	3	1.715	2.845	1.046	-5.607	-0.000	0.000
3417	3416	3415	3414	3	58.576	0.000	-58.576	-0.000	-0.000	0.000
3421	3420	3419	3416	3	58.576	0.000	-58.576	-0.000	-0.000	0.000
3423	3420	3419	3416	3	58.576	0.000	-58.576	-0.000	-0.000	0.000
3434	3433	3426	3427	3	0.000	0.000	0.000	-0.000	-0.000	0.000
3435	3433	3426	3427	3	0.000	0.000	0.000	-0.000	-0.000	0.000
3436	3433	3426	3427	3	0.000	0.000	0.000	-0.000	-0.000	0.000
3435	3433	3426	3415	3	0.000	0.000	0.000	-0.000	-0.000	0.000
3434	3433	3426	3415	3	0.000	0.000	0.000	-0.000	-0.000	0.000
3436	3433	3426	3415	3	0.000	0.000	0.000	-0.000	-0.000	0.000
3435	3433	3426	3425	3	1.130	3.389	0.000	-4.519	-0.000	0.000
3436	3433	3426	3425	3	1.130	3.389	0.000	-4.519	-0.000	0.000
3434	3433	3426	3425	3	1.130	3.389	0.000	-4.519	-0.000	0.000
3464	3410	3409	3408	3	58.576	0.000	-58.576	-0.000	-0.000	0.000
3464	3410	3411	3412	3	58.576	0.000	-58.576	-0.000	-0.000	0.000
3464	3410	3411	3437	3	58.576	0.000	-58.576	-0.000	-0.000	0.000
3464	3410	3409	3441	3	58.576	0.000	-58.576	-0.000	-0.000	0.000
3453	3395	3394	3393	3	30.334	0.000	-30.334	-0.000	-0.000	0.000
3452	3392	3393	3394	3	30.334	0.000	-30.334	-0.000	-0.000	0.000
3458	3401	3393	3394	3	30.334	0.000	-30.334	-0.000	-0.000	0.000
3457	3400	3394	3393	3	30.334	0.000	-30.334	-0.000	-0.000	0.000
3457	3400	3394	3395	3	30.334	0.000	-30.334	-0.000	-0.000	0.000
3453	3395	3394	3400	3	30.334	0.000	-30.334	-0.000	-0.000	0.000
3452	3392	3393	3401	3	30.334	0.000	-30.334	-0.000	-0.000	0.000
3458	3401	3393	3392	3	30.334	0.000	-30.334	-0.000	-0.000	0.000
3451	3391	3392	3393	3	30.334	0.000	-30.334	-0.000	-0.000	0.000
3459	3402	3401	3393	3	30.334	0.000	-30.334	-0.000	-0.000	0.000
3454	3396	3395	3394	3	30.334	0.000	-30.334	-0.000	-0.000	0.000
3456	3399	3400	3394	3	30.334	0.000	-30.334	-0.000	-0.000	0.000
3461	3405	3406	3407	3	30.334	0.000	-30.334	-0.000	-0.000	0.000
3483	3442	3406	3407	3	30.334	0.000	-30.334	-0.000	-0.000	0.000
3468	3428	3429	3430	3	30.334	0.000	-30.334	-0.000	-0.000	0.000
3456	3399	3397	3396	3	30.334	0.000	-30.334	-0.000	-0.000	0.000
3471	3431	3430	3429	3	30.334	0.000	-30.334	-0.000	-0.000	0.000
3483	3442	3443	3403	3	30.334	0.000	-30.334	-0.000	-0.000	0.000
3469	3429	3428	3427	3	30.334	0.000	-30.334	-0.000	-0.000	0.000
3484	3443	3442	3406	3	30.334	0.000	-30.334	-0.000	-0.000	0.000
3470	3430	3429	3428	3	30.334	0.000	-30.334	-0.000	-0.000	0.000
3459	3402	3390	3391	3	30.334	0.000	-30.334	-0.000	-0.000	0.000
3458	3401	3402	3390	3	30.334	0.000	-30.334	-0.000	-0.000	0.000
3483	3442	3406	3405	3	30.334	0.000	-30.334	-0.000	-0.000	0.000
3484	3443	3403	3404	3	30.334	0.000	-30.334	-0.000	-0.000	0.000
3471	3431	3432	3427	3	30.334	0.000	-30.334	-0.000	-0.000	0.000
3468	3428	3427	3432	3	30.334	0.000	-30.334	-0.000	-0.000	0.000
3453	3395	3396	3397	3	30.334	0.000	-30.334	-0.000	-0.000	0.000
3454	3396	3397	3399	3	30.334	0.000	-30.334	-0.000	-0.000	0.000
3451	3391	3390	3402	3	30.334	0.000	-30.334	-0.000	-0.000	0.000
3460	3404	3403	3443	3	30.334	0.000	-30.334	-0.000	-0.000	0.000
3460	3404	3405	3406	3	30.334	0.000	-30.334	-0.000	-0.000	0.000
3457	3400	3399	3397	3	30.334	0.000	-30.334	-0.000	-0.000	0.000
3461	3405	3406	3442	3	30.334	0.000	-30.334	-0.000	-0.000	0.000
3470	3430	3431	3432	3	30.334	0.000	-30.334	-0.000	-0.000	0.000
3472	3432	3431	3430	3	30.334	0.000	-30.334	-0.000	-0.000	0.000
3469	3429	3430	3431	3	30.334	0.000	-30.334	-0.000	-0.000	0.000
3472	3432	3427	3428	3	30.334	0.000	-30.334	-0.000	-0.000	0.000
3452	3392	3391	3390	3	30.334	0.000	-30.334	-0.000	-0.000	0.000
3461	3405	3404	3403	3	30.334	0.000	-30.334	-0.000	-0.000	0.000
3472	3432	3427	3426	3	30.334	0.000	-30.334	-0.000	-0.000	0.000
3468	3428	3427	3426	3	30.334	0.000	-30.334	-0.000	-0.000	0.000
3461	3405	3404	3460	3	30.334	0.000	-30.334	-0.000	-0.000	0.000
3484	3443	3442	3483	3	30.334	0.000	-30.334	-0.000	-0.000	0.000
3470	3430	3429	3469	3	30.334	0.000	-30.334	-0.000	-0.000	0.000
3454	3396	3395	3453	3	30.334	0.000	-30.334	-0.000	-0.000	0.000
3459	3402	3401	3458	3	30.334	0.000	-30.334	-0.000	-0.000	0.000
3457	3400	3399	3456	3	30.334	0.000	-30.334	-0.000	-0.000	0.000
3469	3429	3428	3468	3	30.334	0.000	-30.334	-0.000	-0.000	0.000
3452	3392	3391	3451	3	30.334	0.000	-30.334	-0.000	-0.000	0.000
3471	3431	3430	3470	3	30.334	0.000	-30.334	-0.000	-0.000	0.000
3472	3432	3431	3471	3	30.334	0.000	-30.334	-0.000	-0.000	0.000
3484	3443	3403	3386	3	30.334	0.000	-30.334	-0.000	-0.000	0.000
3460	3404	3403	3386	3	30.334	0.000	-30.334	-0.000	-0.000	0.000
3454	3396	3397	3398	3	0.0	0.0	0.0	-0.0	-0.0	0.0
3456	3399	3397	3398	3	0.0	0.0	0.0	-0.0	-0.0	0.0
3451	3391	3390	3389	3	30.334	0.000	-30.334	-0.000	-0.000	0.000
3459	3402	3390	3389	3	30.334	0.000	-30.334	-0.000	-0.000	0.000
3465	3412	3411	3410	3	58.576	0.000	-58.576	-0.000	-0.000	0.000
3465	3412	3413	3414	3	58.576	0.000	-58.576	-0.000	-0.000	0.000
3467	3414	3413	3412	3	58.576	0.000	-58.576	-0.000	-0.000	0.000
3466	3413	3412	3411	3	58.576	0.000	-58.576	-0.000	-0.000	0.000
3463	3408	3409	3410	3	58.576	0.000	-58.576	-0.000	-0.000	0.000
3462	3407	3408	3409	3	58.576	0.000	-58.576	-0.000	-0.000	0.000
3463	3408	3407	3406	3	58.576	0.000	-58.576	-0.000	-0.000	0.000
3466	3413	3414	3415	3	58.576	0.000	-58.576	-0.000	-0.000	0.000
3465	3412	3411	3437	3	58.576	0.000	-58.576	-0.000	-0.000	0.000
3463	3408	3409	3441	3	58.576	0.000	-58.576	-0.000	-0.000	0.000
3463	3408	3407	3462	3	58.576	0.000	-58.576	-0.000	-0.000	0.000
3466	3413	3412	3465	3	58.576	0.000	-58.576	-0.000	-0.000	0.000
3467	3414	3413	3466	3	58.576	0.000	-58.576	-0.000	-0.000	0.000
3462	3407	3406	3442	3	-0.778	-2.335	0.000	3.113	-0.000	0.000
3462	3407	3406	3405	3	-0.778	-2.335	0.000	3.113	-0.000	0.000
3467	3414	3415	3416	3	58.576	0.000	-58.576	-0.000	-0.000	0.000
3467	3414	3415	3426	3	58.576	0.000	-58.576	-0.000	-0.000	0.000
3481	3441	3409	3408	3	-0.778	-2.335	0.000	3.113	-0.000	0.000
3481	3441	3409	3410	3	-0.778	-2.335	0.000	3.113	-0.000	0.000
3482	3441	3409	3408	3	-0.778	-2.335	0.000	3.113	-0.000	0.000
3474	3437	3411	3412	3	-0.778	-2.335	0.000	3.113	-0.000	0.000
3482	3441	3409	3410	3	-0.778	-2.335	0.000	3.113	-0.000	0.000
3473	3437	3411	3410	3	-0.778	-2.335	0.000	3.113	-0.000	0.000
3474	3437	3411	3410	3	-0.778	-2.335	0.000	3.113	-0.000	0.000
3473	3437	3411	3412	3	-0.778	-2.335	0.000	3.113	-0.000	0.000
3476	3439	3438	3441	3	0.628	1.883	0.000	-2.510	-0.000	0.000
3475	3439	3438	3440	3	0.628	1.883	0.000	-2.510	-0.000	0.000
3475	3439	3438	3437	3	0.628	1.883	0.000	-2.510	-0.000	0.000
3477	3439	3438	3440	3	0.628	1.883	0.000	-2.510	-0.000	0.000
3479	3440	3438	3437	3	0.628	1.883	0.000	-2.510	-0.000	0.000
3478	3440	3438	3437	3	0.628	1.883	0.000	-2.510	-0.000	0.000
3477	3439	3438	3437	3	0.628	1.883	0.000	-2.510	-0.000	0.000
3479	3440	3438	3439	3	0.628	1.883	0.000	-2.510	-0.000	0.000
3476	3439	3438	3437	3	0.628	1.883	0.000	-2.510	-0.000	0.000
3481	3441	3438	3437	3	0.628	1.883	0.000	-2.510	-0.000	0.000
3481	3441	3438	3439	3	0.628	1.883	0.000	-2.510	-0.000	0.000
3474	3437	3438	3439	3	0.628	1.883	0.000	-2.510	-0.000	0.000
3477	3439	3438	3441	3	0.628	1.883	0.000	-2.510	-0.000	0.000
3474	3437	3438	3440	3	0.628	1.883	0.000	-2.510	-0.000	0.000
3482	3441	3438	3439	3	0.628	1.883	0.000	-2.510	-0.000	0.000
3478	3440	3438	3441	3	0.628	1.883	0.000	-2.510	-0.000	0.000
3479	3440	3438	3441	3	0.628	1.883	0.000	-2.510	-0.000	0.000
3480	3440	3438	3437	3	0.628	1.883	0.000	-2.510	-0.000	0.000
3473	3437	3438	3440	3	0.628	1.883	0.000	-2.510	-0.000	0.000
3473	3437	3438	3439	3	0.628	1.883	0.000	-2.510	-0.000	0.000
3478	3440	3438	3439	3	0.628	1.883	0.000	-2.510	-0.000	0.000
3474	3437	3438	3441	3	0.628	1.883	0.000	-2.510	-0.000	0.000
3482	3441	3438	3440	3	0.628	1.883	0.000	-2.510	-0.000	0.000
3476	3439	3438	3440	3	0.628	1.883	0.000	-2.510	-0.000	0.000
3475	3439	3438	3441	3	0.628	1.883	0.000	-2.510	-0.000	0.000
3482	3441	3438	3437	3	0.628	1.883	0.000	-2.510	-0.000	0.000
3473	3437	3438	3441	3	0.628	1.883	0.000	-2.510	-0.000	0.000
3480	3440	3438	3439	3	0.628	1.883	0.000	-2.510	-0.000	0.000
3481	3441	3438	3440	3	0.628	1.883	0.000	-2.510	-0.000	0.000
3480	3440	3438	3441	3	0.628	1.883	0.000	-2.510	-0.000	0.000
3449	3388	3387	3448	3	0.628	1.883	0.000	-2.510	-0.000	0.000
3450	3388	3387	3447	3	0.628	1.883	0.000	-2.510	-0.000	0.000
3449	3388	3387	3447	3	0.628	1.883	0.000	-2.510	-0.000	0.000
3450	3388	3387	3448	3	0.628	1.883	0.000	-2.510	-0.000	0.000
3450	3388	3387	3386	3	-4.096	5.088	2.966	-3.958	-0.000	0.000
3449	3388	3387	3386	3	-4.096	5.088	2.966	-3.958	-0.000	0.000
3448	3387	3388	3389	3	0.979	2.937	0.000	-3.916	-0.000	0.000
3447	3387	3388	3389	3	0.979	2.937	0.000	-3.916	-0.000	0.000
3448	3387	3386	3403	3	1.172	3.515	0.000	-4.686	-0.000	0.000
3444	3385	3386	3403	3	1.172	3.515	0.000	-4.686	-0.000	0.000
3447	3387	3386	3403	3	1.172	3.515	0.000	-4.686	-0.000	0.000
3445	3385	3386	3403	3	1.172	3.515	0.000	-4.686	-0.000	0.000
3446	3385	3386	3403	3	1.172	3.515	0.000	-4.686	-0.000	0.000
3447	3387	3386	3385	3	1.172	3.515	0.000	-4.686	-0.000	0.000
3445	3385	3386	3387	3	1.172	3.515	0.000	-4.686	-0.000	0.000
3448	3387	3386	3385	3	1.172	3.515	0.000	-4.686	-0.000	0.000
3446	3385	3386	3387	3	1.172	3.515	0.000	-4.686	-0.000	0.000
3444	3385	3386	3387	3	1.172	3.515	0.000	-4.686	-0.000	0.000
3449	3388	3389	3390	3	1.590	4.770	0.000	-6.360	-0.000	0.000
3450	3388	3389	3390	3	1.590	4.770	0.000	-6.360	-0.000	0.000
3455	3398	3397	3399	3	0.0	0.0	0.0	-0.0	-0.0	0.0
3455	3398	3397	3396	3	0.0	0.0	0.0	-0.0	-0.0	0.0
3398	3397	3396	3395	3	0.0	0.0	0.0	-0.0	-0.0	0.0
3425	3426	3415	3414	3	2.874	0.582	2.092	-5.548	-0.000	0.000
3425	3426	3415	3416	3	1.046	-1.046	0.000	-0.000	-0.000	0.000
3389	3388	3387	3386	3	16.736	-16.736	0.000	-0.000	-0.000	0.000
3425	3419	3416	3415	3	1.046	-1.046	0.000	-0.000	-0.000	0.000
3425	3419	3416	3417	3	9.079	0.000	-9.079	-0.000	-0.000	0.000
3494	3493	3492	3491	3	30.334	0.000	-30.334	-0.000	-0.000	0.000
3493	3501	3502	3490	3	30.334	0.000	-30.334	-0.000	-0.000	0.000
3493	3492	3491	3490	3	30.334	0.000	-30.334	-0.000	-0.000	0.000
3514	3513	3512	3511	3	21.738	2.408	-16.966	-7.180	-0.000	0.000
3510	3509	3508	3507	3	21.738	2.408	-16.966	-7.180	-0.000	0.000
3511	3510	3509	3508	3	21.738	2.408	-16.966	-7.180	-0.000	0.000
3512	3511	3510	3509	3	21.738	2.408	-16.966	-7.180	-0.000	0.000
3513	3512	3511	3510	3	21.738	2.408	-16.966	-7.180	-0.000	0.000
3509	3508	3507	3506	3	58.576	0.000	-58.576	-0.000	-0.000	0.000
3508	3507	3506	3505	3	16.027	-4.391	-14.029	2.393	-0.000	0.000
3507	3506	3505	3504	3	30.334	0.000	-30.334	-0.000	-0.000	0.000
3516	3515	3514	3513	3	58.576	0.000	-58.576	-0.000	-0.000	0.000
3501	3493	3494	3500	3	9.079	0.000	-9.079	-0.000	-0.000	0.000
3500	3494	3493	3492	3	9.079	0.000	-9.079	-0.000	-0.000	0.000
3501	3493	3494	3495	3	9.079	0.000	-9.079	-0.000	-0.000	0.000
3495	3494	3493	3492	3	9.079	0.000	-9.079	-0.000	-0.000	0.000
3500	3494	3495	3496	3	30.334	0.000	-30.334	-0.000	-0.000	0.000
3501	3493	3492	3491	3	30.334	0.000	-30.334	-0.000	-0.000	0.000
3499	3500	3494	3493	3	30.334	0.000	-30.334	-0.000	-0.000	0.000
3502	3501	3493	3494	3	30.334	0.000	-30.334	-0.000	-0.000	0.000
3496	3495	3494	3493	3	30.334	0.000	-30.334	-0.000	-0.000	0.000
3499	3500	3494	3495	3	30.334	0.000	-30.334	-0.000	-0.000	0.000
3502	3501	3493	3492	3	30.334	0.000	-30.334	-0.000	-0.000	0.000
3542	3506	3507	3508	3	16.027	-4.391	-14.029	2.393	-0.000	0.000
3497	3499	3500	3494	3	30.334	0.000	-30.334	-0.000	-0.000	0.000
3497	3496	3495	3494	3	30.334	0.000	-30.334	-0.000	-0.000	0.000
3543	3542	3506	3507	3	30.334	0.000	-30.334	-0.000	-0.000	0.000
3532	3527	3528	3529	3	30.334	0.000	-30.334	-0.000	-0.000	0.000
3543	3542	3506	3505	3	30.334	0.000	-30.334	-0.000	-0.000	0.000
3502	3490	3491	3492	3	30.334	0.000	-30.334	-0.000	-0.000	0.000
3542	3543	3503	3504	3	30.334	0.000	-30.334	-0.000	-0.000	0.000
3532	3531	3530	3529	3	30.334	0.000	-30.334	-0.000	-0.000	0.000
3531	3530	3529	3528	3	30.334	0.000	-30.334	-0.000	-0.000	0.000
3530	3529	3528	3527	3	30.334	0.000	-30.334	-0.000	-0.000	0.000
3506	3505	3504	3503	3	30.334	0.000	-30.334	-0.000	-0.000	0.000
3506	3542	3543	3503	3	30.334	0.000	-30.334	-0.000	-0.000	0.000
3543	3503	3504	3505	3	30.334	0.000	-30.334	-0.000	-0.000	0.000
3542	3506	3505	3504	3	30.334	0.000	-30.334	-0.000	-0.000	0.000
3531	3532	3527	3528	3	30.334	0.000	-30.334	-0.000	-0.000	0.000
3500	3499	3497	3496	3	30.334	0.000	-30.334	-0.000	-0.000	0.000
3501	3502	3490	3491	3	30.334	0.000	-30.334	-0.000	-0.000	0.000
3530	3531	3532	3527	3	30.334	0.000	-30.334	-0.000	-0.000	0.000
3499	3497	3496	3495	3	30.334	0.000	-30.334	-0.000	-0.000	0.000
3531	3532	3527	3526	3	30.334	0.000	-30.334	-0.000	-0.000	0.000
3529	3528	3527	3526	3	30.334	0.000	-30.334	-0.000	-0.000	0.000
3542	3543	3503	3486	3	30.334	0.000	-30.334	-0.000	-0.000	0.000
3505	3504	3503	3486	3	30.334	0.000	-30.334	-0.000	-0.000	0.000
3500	3499	3497	3498	3	0.0	0.0	0.0	-0.0	-0.0	0.0
3492	3491	3490	3489	3	30.334	0.000	-30.334	-0.000	-0.000	0.000
3501	3502	3490	3489	3	30.334	0.000	-30.334	-0.000	-0.000	0.000
3532	3527	3526	3515	3	0.000	0.000	0.000	-0.000	-0.000	0.000
3528	3527	3526	3515	3	0.000	0.000	0.000	-0.000	-0.000	0.000
3532	3527	3526	3525	3	0.000	0.000	0.000	-0.000	-0.000	0.000
3528	3527	3526	3525	3	0.000	0.000	0.000	-0.000	-0.000	0.000
3543	3503	3486	3487	3	5.184	35.932	-14.355	-26.761	-0.000	0.000
3504	3503	3486	3487	3	5.184	35.932	-14.355	-26.761	-0.000	0.000
3504	3503	3486	3485	3	5.184	35.932	-14.355	-26.761	-0.000	0.000
3543	3503	3486	3485	3	5.184	35.932	-14.355	-26.761	-0.000	0.000
3491	3490	3489	3488	3	12.552	0.000	-12.552	-0.000	-0.000	0.000
3502	3490	3489	3488	3	12.552	0.000	-12.552	-0.000	-0.000	0.000
3527	3526	3515	3514	3	6.322	-2.485	0.707	-4.544	-0.000	0.000
3527	3526	3515	3516	3	0.527	-6.397	-1.695	7.565	-0.000	0.000
3527	3526	3525	3519	3	1.715	2.845	1.046	-5.607	-0.000	0.000
3503	3486	3487	3488	3	1.789	3.492	0.536	-5.816	-0.000	0.000
3490	3489	3488	3487	3	1.715	2.845	1.046	-5.607	-0.000	0.000
3533	3526	3527	3528	3	0.000	0.000	0.000	-0.000	-0.000	0.000
3533	3526	3527	3532	3	0.000	0.000	0.000	-0.000	-0.000	0.000
3533	3526	3515	3514	3	6.322	-2.485	0.707	-4.544	-0.000	0.000
3533	3526	3515	3516	3	0.527	-6.397	-1.695	7.565	-0.000	0.000
3533	3526	3525	3519	3	1.715	2.845	1.046	-5.607	-0.000	0.000
3515	3514	3513	3512	3	21.738	2.408	-16.966	-7.180	-0.000	0.000
3520	3519	3516	3515	3	21.738	2.408	-16.966	-7.180	-0.000	0.000
3520	3519	3516	3517	3	-0.778	-2.335	0.000	3.113	-0.000	0.000
3541	3509	3508	3507	3	58.576	0.000	-58.576	-0.000	-0.000	0.000
3537	3511	3510	3509	3	58.576	0.000	-58.576	-0.000	-0.000	0.000
3541	3509	3510	3511	3	58.576	0.000	-58.576	-0.000	-0.000	0.000
3537	3511	3512	3513	3	58.576	0.000	-58.576	-0.000	-0.000	0.000
3526	3515	3514	3513	3	-0.778	-2.335	0.000	3.113	-0.000	0.000
3526	3515	3516	3519	3	58.576	0.000	-58.576	-0.000	-0.000	0.000
3526	3515	3516	3517	3	58.576	0.000	-58.576	-0.000	-0.000	0.000
3538	3541	3509	3508	3	0.527	-6.397	-1.695	7.565	-0.000	0.000
3538	3537	3511	3512	3	0.527	-6.397	-1.695	7.565	-0.000	0.000
3538	3537	3511	3510	3	0.527	-6.397	-1.695	7.565	-0.000	0.000
3538	3541	3509	3510	3	0.527	-6.397	-1.695	7.565	-0.000	0.000
3541	3538	3537	3511	3	2.301	-1.464	0.837	-1.674	-0.000	0.000
3540	3538	3541	3509	3	2.301	-1.464	0.837	-1.674	-0.000	0.000
3537	3538	3541	3509	3	2.301	-1.464	0.837	-1.674	-0.000	0.000
3539	3538	3541	3509	3	2.301	-1.464	0.837	-1.674	-0.000	0.000
3540	3538	3537	3511	3	2.301	-1.464	0.837	-1.674	-0.000	0.000
3539	3538	3537	3511	3	2.301	-1.464	0.837	-1.674	-0.000	0.000
3488	3487	3486	3485	3	1.789	3.492	0.536	-5.816	-0.000	0.000
3526	3525	3519	3516	3	30.334	0.000	-30.334	-0.000	-0.000	0.000
3526	3525	3519	3520	3	30.334	0.000	-30.334	-0.000	-0.000	0.000
3519	3516	3515	3514	3	58.576	0.000	-58.576	-0.000	-0.000	0.000
3519	3525	3526	3515	3	1.715	2.845	1.046	-5.607	-0.000	0.000
3517	3516	3515	3514	3	58.576	0.000	-58.576	-0.000	-0.000	0.000
3521	3520	3519	3516	3	58.576	0.000	-58.576	-0.000	-0.000	0.000
3523	3520	3519	3516	3	58.576	0.000	-58.576	-0.000	-0.000	0.000
3534	3533	3526	3527	3	0.000	0.000	0.000	-0.000	-0.000	0.000
3535	3533	3526	3527	3	0.000	0.000	0.000	-0.000	-0.000	0.000
3536	3533	3526	3527	3	0.000	0.000	0.000	-0.000	-0.000	0.000
3535	3533	3526	3515	3	0.000	0.000	0.000	-0.000	-0.000	0.000
3534	3533	3526	3515	3	0.000	0.000	0.000	-0.000	-0.000	0.000
3536	3533	3526	3515	3	0.000	0.000	0.000	-0.000	-0.000	0.000
3535	3533	3526	3525	3	1.130	3.389	0.000	-4.519	-0.000	0.000
3536	3533	3526	3525	3	1.130	3.389	0.000	-4.519	-0.000	0.000
3534	3533	3526	3525	3	1.130	3.389	0.000	-4.519	-0.000	0.000
3564	3510	3509	3508	3	58.576	0.000	-58.576	-0.000	-0.000	0.000
3564	3510	3511	3512	3	58.576	0.000	-58.576	-0.000	-0.000	0.000
3564	3510	3511	3537	3	58.576	0.000	-58.576	-0.000	-0.000	0.000
3564	3510	3509	3541	3	58.576	0.000	-58.576	-0.000	-0.000	0.000
3553	3495	3494	3493	3	30.334	0.000	-30.334	-0.000	-0.000	0.000
3552	3492	3493	3494	3	30.334	0.000	-30.334	-0.000	-0.000	0.000
3558	3501	3493	3494	3	30.334	0.000	-30.334	-0.000	-0.000	0.000
3557	3500	3494	3493	3	30.334	0.000	-30.334	-0.000	-0.000	0.000
3557	3500	3494	3495	3	30.334	0.000	-30.334	-0.000	-0.000	0.000
3553	3495	3494	3500	3	30.334	0.000	-30.334	-0.000	-0.000	0.000
3552	3492	3493	3501	3	30.334	0.000	-30.334	-0.000	-0.000	0.000
3558	3501	3493	3492	3	30.334	0.000	-30.334	-0.000	-0.000	0.000
3551	3491	3492	3493	3	30.334	0.000	-30.334	-0.000	-0.000	0.000
3559	3502	3501	3493	3	30.334	0.000	-30.334	-0.000	-0.000	0.000
3554	3496	3495	3494	3	30.334	0.000	-30.334	-0.000	-0.000	0.000
3556	3499	3500	3494	3	30.334	0.000	-30.334	-0.000	-0.000	0.000
3561	3505	3506	3507	3	30.334	0.000	-30.334	-0.000	-0.000	0.000
3583	3542	3506	3507	3	30.334	0.000	-30.334	-0.000	-0.000	0.000
3568	3528	3529	3530	3	30.334	0.000	-30.334	-0.000	-0.000	0.000
3556	3499	3497	3496	3	30.334	0.000	-30.334	-0.000	-0.000	0.000
3571	3531	3530	3529	3	30.334	0.000	-30.334	-0.000	-0.000	0.000
3583	3542	3543	3503	3	30.334	0.000	-30.334	-0.000	-0.000	0.000
3569	3529	3528	3527	3	30.334	0.000	-30.334	-0.000	-0.000	0.000
3584	3543	3542	3506	3	30.334	0.000	-30.334	-0.000	-0.000	0.000
3570	3530	3529	3528	3	30.334	0.000	-30.334	-0.000	-0.000	0.000
3559	3502	3490	3491	3	30.334	0.000	-30.334	-0.000	-0.000	0.000
3558	3501	3502	3490	3	30.334	0.000	-30.334	-0.000	-0.000	0.000
3583	3542	3506	3505	3	30.334	0.000	-30.334	-0.000	-0.000	0.000
3584	3543	3503	3504	3	30.334	0.000	-30.334	-0.000	-0.000	0.000
3571	3531	3532	3527	3	30.334	0.000	-30.334	-0.000	-0.000	0.000
3568	3528	3527	3532	3	30.334	0.000	-30.334	-0.000	-0.000	0.000
3553	3495	3496	3497	3	30.334	0.000	-30.334	-0.000	-0.000	0.000
3554	3496	3497	3499	3	30.334	0.000	-30.334	-0.000	-0.000	0.000
3551	3491	3490	3502	3	30.334	0.000	-30.334	-0.000	-0.000	0.000
3560	3504	3503	3543	3	30.334	0.000	-30.334	-0.000	-0.000	0.000
3560	3504	3505	3506	3	30.334	0.000	-30.334	-0.000	-0.000	0.000
3557	3500	3499	3497	3	30.334	0.000	-30.334	-0.000	-0.000	0.000
3561	3505	3506	3542	3	30.334	0.000	-30.334	-0.000	-0.000	0.000
3570	3530	3531	3532	3	30.334	0.000	-30.334	-0.000	-0.000	0.000
3572	3532	3531	3530	3	30.334	0.000	-30.334	-0.000	-0.000	0.000
3569	3529	3530	3531	3	30.334	0.000	-30.334	-0.000	-0.000	0.000
3572	3532	3527	3528	3	30.334	0.000	-30.334	-0.000	-0.000	0.000
3552	3492	3491	3490	3	30.334	0.000	-30.334	-0.000	-0.000	0.000
3561	3505	3504	3503	3	30.334	0.000	-30.334	-0.000	-0.000	0.000
3572	3532	3527	3526	3	30.334	0.000	-30.334	-0.000	-0.000	0.000
3568	3528	3527	3526	3	30.334	0.000	-30.334	-0.000	-0.000	0.000
3561	3505	3504	3560	3	30.334	0.000	-30.334	-0.000	-0.000	0.000
3584	3543	3542	3583	3	30.334	0.000	-30.334	-0.000	-0.000	0.000
3570	3530	3529	3569	3	30.334	0.000	-30.334	-0.000	-0.000	0.000
3554	3496	3495	3553	3	30.334	0.000	-30.334	-0.000	-0.000	0.000
3559	3502	3501	3558	3	30.334	0.000	-30.334	-0.000	-0.000	0.000
3557	3500	3499	3556	3	30.334	0.000	-30.334	-0.000	-0.000	0.000
3569	3529	3528	3568	3	30.334	0.000	-30.334	-0.000	-0.000	0.000
3552	3492	3491	3551	3	30.334	0.000	-30.334	-0.000	-0.000	0.000
3571	3531	3530	3570	3	30.334	0.000	-30.334	-0.000	-0.000	0.000
3572	3532	3531	3571	3	30.334	0.000	-30.334	-0.000	-0.000	0.000
3584	3543	3503	3486	3	30.334	0.000	-30.334	-0.000	-0.000	0.000
3560	3504	3503	3486	3	30.334	0.000	-30.334	-0.000	-0.000	0.000
3554	3496	3497	3498	3	0.0	0.0	0.0	-0.0	-0.0	0.0
3556	3499	3497	3498	3	0.0	0.0	0.0	-0.0	-0.0	0.0
3551	3491	3490	3489	3	30.334	0.000	-30.334	-0.000	-0.000	0.000
3559	3502	3490	3489	3	30.334	0.000	-30.334	-0.000	-0.000	0.000
3565	3512	3511	3510	3	58.576	0.000	-58.576	-0.000	-0.000	0.000
3565	3512	3513	3514	3	58.576	0.000	-58.576	-0.000	-0.000	0.000
3567	3514	3513	3512	3	58.576	0.000	-58.576	-0.000	-0.000	0.000
3566	3513	3512	3511	3	58.576	0.000	-58.576	-0.000	-0.000	0.000
3563	3508	3509	3510	3	58.576	0.000	-58.576	-0.000	-0.000	0.000
3562	3507	3508	3509	3	58.576	0.000	-58.576	-0.000	-0.000	0.000
3563	3508	3507	3506	3	58.576	0.000	-58.576	-0.000	-0.000	0.000
3566	3513	3514	3515	3	58.576	0.000	-58.576	-0.000	-0.000	0.000
3565	3512	3511	3537	3	58.576	0.000	-58.576	-0.000	-0.000	0.000
3563	3508	3509	3541	3	58.576	0.000	-58.576	-0.000	-0.000	0.000
3563	3508	3507	3562	3	58.576	0.000	-58.576	-0.000	-0.000	0.000
3566	3513	3512	3565	3	58.576	0.000	-58.576	-0.000	-0.000	0.000
3567	3514	3513	3566	3	58.576	0.000	-58.576	-0.000	-0.000	0.000
3562	3507	3506	3542	3	-0.778	-2.335	0.000	3.113	-0.000	0.000
3562	3507	3506	3505	3	-0.778	-2.335	0.000	3.113	-0.000	0.000
3567	3514	3515	3516	3	58.576	0.000	-58.576	-0.000	-0.000	0.000
3567	3514	3515	3526	3	58.576	0.000	-58.576	-0.000	-0.000	0.000
3581	3541	3509	3508	3	-0.778	-2.335	0.000	3.113	-0.000	0.000
3581	3541	3509	3510	3	-0.778	-2.335	0.000	3.113	-0.000	0.000
3582	3541	3509	3508	3	-0.778	-2.335	0.000	3.113	-0.000	0.000
3574	3537	3511	3512	3	-0.778	-2.335	0.000	3.113	-0.000	0.000
3582	3541	3509	3510	3	-0.778	-2.335	0.000	3.113	-0.000	0.000
3573	3537	3511	3510	3	-0.778	-2.335	0.000	3.113	-0.000	0.000
3574	3537	3511	3510	3	-0.778	-2.335	0.000	3.113	-0.000	0.000
3573	3537	3511	3512	3	-0.778	-2.335	0.000	3.113	-0.000	0.000
3576	3539	3538	3541	3	0.628	1.883	0.000	-2.510	-0.000	0.000
3575	3539	3538	3540	3	0.628	1.883	0.000	-2.510	-0.000	0.000
3575	3539	3538	3537	3	0.628	1.883	0.000	-2.510	-0.000	0.000
3577	3539	3538	3540	3	0.628	1.883	0.000	-2.510	-0.000	0.000
3579	3540	3538	3537	3	0.628	1.883	0.000	-2.510	-0.000	0.000
3578	3540	3538	3537	3	0.628	1.883	0.000	-2.510	-0.000	0.000
3577	3539	3538	3537	3	0.628	1.883	0.000	-2.510	-0.000	0.000
3579	3540	3538	3539	3	0.628	1.883	0.000	-2.510	-0.000	0.000
3576	3539	3538	3537	3	0.628	1.883	0.000	-2.510	-0.000	0.000
3581	3541	3538	3537	3	0.628	1.883	0.000	-2.510	-0.000	0.000
3581	3541	3538	3539	3	0.628	1.883	0.000	-2.510	-0.000	0.000
3574	3537	3538	3539	3	0.628	1.883	0.000	-2.510	-0.000	0.000
3577	3539	3538	3541	3	0.628	1.883	0.000	-2.510	-0.000	0.000
3574	3537	3538	3540	3	0.628	1.883	0.000	-2.510	-0.000	0.000
3582	3541	3538	3539	3	0.628	1.883	0.000	-2.510	-0.000	0.000
3578	3540	3538	3541	3	0.628	1.883	0.000	-2.510	-0.000	0.000
3579	3540	3538	3541	3	0.628	1.883	0.000	-2.510	-0.000	0.000
3580	3540	3538	3537	3	0.628	1.883	0.000	-2.510	-0.000	0.000
3573	3537	3538	3540	3	0.628	1.883	0.000	-2.510	-0.000	0.000
3573	3537	3538	3539	3	0.628	1.883	0.000	-2.510	-0.000	0.000
3578	3540	3538	3539	3	0.628	1.883	0.000	-2.510	-0.000	0.000
3574	3537	3538	3541	3	0.628	1.883	0.000	-2.510	-0.000	0.000
3582	3541	3538	3540	3	0.628	1.883	0.000	-2.510	-0.000	0.000
3576	3539	3538	3540	3	0.628	1.883	0.000	-2.510	-0.000	0.000
3575	3539	3538	3541	3	0.628	1.883	0.000	-2.510	-0.000	0.000
3582	3541	3538	3537	3	0.628	1.883	0.000	-2.510	-0.000	0.000
3573	3537	3538	3541	3	0.628	1.883	0.000	-2.510	-0.000	0.000
3580	3540	3538	3539	3	0.628	1.883	0.000	-2.510	-0.000	0.000
3581	3541	3538	3540	3	0.628	1.883	0.000	-2.510	-0.000	0.000
3580	3540	3538	3541	3	0.628	1.883	0.000	-2.510	-0.000	0.000
3549	3488	3487	3548	3	0.628	1.883	0.000	-2.510	-0.000	0.000
3550	3488	3487	3547	3	0.628	1.883	0.000	-2.510	-0.000	0.000
3549	3488	3487	3547	3	0.628	1.883	0.000	-2.510	-0.000	0.000
3550	3488	3487	3548	3	0.628	1.883	0.000	-2.510	-0.000	0.000
3550	3488	3487	3486	3	-4.096	5.088	2.966	-3.958	-0.000	0.000
3549	3488	3487	3486	3	-4.096	5.088	2.966	-3.958	-0.000	0.000
3548	3487	3488	3489	3	0.979	2.937	0.000	-3.916	-0.000	0.000
3547	3487	3488	3489	3	0.979	2.937	0.000	-3.916	-0.000	0.000
3548	3487	3486	3503	3	1.172	3.515	0.000	-4.686	-0.000	0.000
3544	3485	3486	3503	3	1.172	3.515	0.000	-4.686	-0.000	0.000
3547	3487	3486	3503	3	1.172	3.515	0.000	-4.686	-0.000	0.000
3545	3485	3486	3503	3	1.172	3.515	0.000	-4.686	-0.000	0.000
3546	3485	3486	3503	3	1.172	3.515	0.000	-4.686	-0.000	0.000
3547	3487	3486	3485	3	1.172	3.515	0.000	-4.686	-0.000	0.000
3545	3485	3486	3487	3	1.172	3.515	0.000	-4.686	-0.000	0.000
3548	3487	3486	3485	3	1.172	3.515	0.000	-4.686	-0.000	0.000
3546	3485	3486	3487	3	1.172	3.515	0.000	-4.686	-0.000	0.000
3544	3485	3486	3487	3	1.172	3.515	0.000	-4.686	-0.000	0.000
3549	3488	3489	3490	3	1.590	4.770	0.000	-6.360	-0.000	0.000
3550	3488	3489	3490	3	1.590	4.770	0.000	-6.360	-0.000	0.000
3555	3498	3497	3499	3	0.0	0.0	0.0	-0.0	-0.0	0.0
3555	3498	3497	3496	3	0.0	0.0	0.0	-0.0	-0.0	0.0
3498	3497	3496	3495	3	0.0	0.0	0.0	-0.0	-0.0	0.0
3525	3526	3515	3514	3	2.874	0.582	2.092	-5.548	-0.000	0.000
3525	3526	3515	3516	3	1.046	-1.046	0.000	-0.000	-0.000	0.000
3489	3488	3487	3486	3	16.736	-16.736	0.000	-0.000	-0.000	0.000
3525	3519	3516	3515	3	1.046	-1.046	0.000	-0.000	-0.000	0.000
3525	3519	3516	3517	3	9.079	0.000	-9.079	-0.000	-0.000	0.000
3594	3593	3592	3591	3	30.334	0.000	-30.334	-0.000	-0.000	0.000
3593	3601	3602	3590	3	30.334	0.000	-30.334	-0.000	-0.000	0.000
3593	3592	3591	3590	3	30.334	0.000	-30.334	-0.000	-0.000	0.000
3614	3613	3612	3611	3	21.738	2.408	-16.966	-7.180	-0.000	0.000
3610	3609	3608	3607	3	21.738	2.408	-16.966	-7.180	-0.000	0.000
3611	3610	3609	3608	3	21.738	2.408	-16.966	-7.180	-0.000	0.000
3612	3611	3610	3609	3	21.738	2.408	-16.966	-7.180	-0.000	0.000
3613	3612	3611	3610	3	21.738	2.408	-16.966	-7.180	-0.000	0.000
3609	3608	3607	3606	3	58.576	0.000	-58.576	-0.000	-0.000	0.000
3608	3607	3606	3605	3	16.027	-4.391	-14.029	2.393	-0.000	0.000
3607	3606	3605	3604	3	30.334	0.000	-30.334	-0.000	-0.000	0.000
3616	3615	3614	3613	3	58.576	0.000	-58.576	-0.000	-0.000	0.000
3601	3593	3594	3600	3	9.079	0.000	-9.079	-0.000	-0.000	0.000
3600	3594	3593	3592	3	9.079	0.000	-9.079	-0.000	-0.000	0.000
3601	3593	3594	3595	3	9.079	0.000	-9.079	-0.000	-0.000	0.000
3595	3594	3593	3592	3	9.079	0.000	-9.079	-0.000	-0.000	0.000
3600	3594	3595	3596	3	30.334	0.000	-30.334	-0.000	-0.000	0.000
3601	3593	3592	3591	3	30.334	0.000	-30.334	-0.000	-0.000	0.000
3599	3600	3594	3593	3	30.334	0.000	-30.334	-0.000	-0.000	0.000
3602	3601	3593	3594	3	30.334	0.000	-30.334	-0.000	-0.000	0.000
3596	3595	3594	3593	3	30.334	0.000	-30.334	-0.000	-0.000	0.000
3599	3600	3594	3595	3	30.334	0.000	-30.334	-0.000	-0.000	0.000
3602	3601	3593	3592	3	30.334	0.000	-30.334	-0.000	-0.000	0.000
3642	3606	3607	3608	3	16.027	-4.391	-14.029	2.393	-0.000	0.000
3597	3599	3600	3594	3	30.334	0.000	-30.334	-0.000	-0.000	0.000
3597	3596	3595	3594	3	30.334	0.000	-30.334	-0.000	-0.000	0.000
3643	3642	3606	3607	3	30.334	0.000	-30.334	-0.000	-0.000	0.000
3632	3627	3628	3629	3	30.334	0.000	-30.334	-0.000	-0.000	0.000
3643	3642	3606	3605	3	30.334	0.000	-30.334	-0.000	-0.000	0.000
3602	3590	3591	3592	3	30.334	0.000	-30.334	-0.000	-0.000	0.000
3642	3643	3603	3604	3	30.334	0.000	-30.334	-0.000	-0.000	0.000
3632	3631	3630	3629	3	30.334	0.000	-30.334	-0.000	-0.000	0.000
3631	3630	3629	3628	3	30.334	0.000	-30.334	-0.000	-0.000	0.000
3630	3629	3628	3627	3	30.334	0.000	-30.334	-0.000	-0.000	0.000
3606	3605	3604	3603	3	30.334	0.000	-30.334	-0.000	-0.000	0.000
3606	3642	3643	3603	3	30.334	0.000	-30.334	-0.000	-0.000	0.000
3643	3603	3604	3605	3	30.334	0.000	-30.334	-0.000	-0.000	0.000
3642	3606	3605	3604	3	30.334	0.000	-30.334	-0.000	-0.000	0.000
3631	3632	3627	3628	3	30.334	0.000	-30.334	-0.000	-0.000	0.000
3600	3599	3597	3596	3	30.334	0.000	-30.334	-0.000	-0.000	0.000
3601	3602	3590	3591	3	30.334	0.000	-30.334	-0.000	-0.000	0.000
3630	3631	3632	3627	3	30.334	0.000	-30.334	-0.000	-0.000	0.000
3599	3597	3596	3595	3	30.334	0.000	-30.334	-0.000	-0.000	0.000
3631	3632	3627	3626	3	30.334	0.000	-30.334	-0.000	-0.000	0.000
3629	3628	3627	3626	3	30.334	0.000	-30.334	-0.000	-0.000	0.000
3642	3643	3603	3586	3	30.334	0.000	-30.334	-0.000	-0.000	0.000
3605	3604	3603	3586	3	30.334	0.000	-30.334	-0.000	-0.000	0.000
3600	3599	3597	3598	3	0.0	0.0	0.0	-0.0	-0.0	0.0
3592	3591	3590	3589	3	30.334	0.000	-30.334	-0.000	-0.000	0.000
3601	3602	3590	3589	3	30.334	0.000	-30.334	-0.000	-0.000	0.000
3632	3627	3626	3615	3	0.000	0.000	0.000	-0.000	-0.000	0.000
3628	3627	3626	3615	3	0.000	0.000	0.000	-0.000	-0.000	0.000
3632	3627	3626	3625	3	0.000	0.000	0.000	-0.000	-0.000	0.000
3628	3627	3626	3625	3	0.000	0.000	0.000	-0.000	-0.000	0.000
3643	3603	3586	3587	3	5.184	35.932	-14.355	-26.761	-0.000	0.000
3604	3603	3586	3587	3	5.184	35.932	-14.355	-26.761	-0.000	0.000
3604	3603	3586	3585	3	5.184	35.932	-14.355	-26.761	-0.000	0.000
3643	3603	3586	3585	3	5.184	35.932	-14.355	-26.761	-0.000	0.000
3591	3590	3589	3588	3	12.552	0.000	-12.552	-0.000	-0.000	0.000
3602	3590	3589	3588	3	12.552	0.000	-12.552	-0.000	-0.000	0.000
3627	3626	3615	3614	3	6.322	-2.485	0.707	-4.544	-0.000	0.000
3627	3626	3615	3616	3	0.527	-6.397	-1.695	7.565	-0.000	0.000
3627	3626	3625	3619	3	1.715	2.845	1.046	-5.607	-0.000	0.000
3603	3586	3587	3588	3	1.789	3.492	0.536	-5.816	-0.000	0.000
3590	3589	3588	3587	3	1.715	2.845	1.046	-5.607	-0.000	0.000
3633	3626	3627	3628	3	0.000	0.000	0.000	-0.000	-0.000	0.000
3633	3626	3627	3632	3	0.000	0.000	0.000	-0.000	-0.000	0.000
3633	3626	3615	3614	3	6.322	-2.485	0.707	-4.544	-0.000	0.000
3633	3626	3615	3616	3	0.527	-6.397	-1.695	7.565	-0.000	0.000
3633	3626	3625	3619	3	1.715	2.845	1.046	-5.607	-0.000	0.000
3615	3614	3613	3612	3	21.738	2.408	-16.966	-7.180	-0.000	0.000
3620	3619	3616	3615	3	21.738	2.408	-16.966	-7.180	-0.000	0.000
3620	3619	3616	3617	3	-0.778	-2.335	0.000	3.113	-0.000	0.000
3641	3609	3608	3607	3	58.576	0.000	-58.576	-0.000	-0.000	0.000
3637	3611	3610	3609	3	58.576	0.000	-58.576	-0.000	-0.000	0.000
3641	3609	3610	3611	3	58.576	0.000	-58.576	-0.000	-0.000	0.000
3637	3611	3612	3613	3	58.576	0.000	-58.576	-0.000	-0.000	0.000
3626	3615	3614	3613	3	-0.778	-2.335	0.000	3.113	-0.000	0.000
3626	3615	3616	3619	3	58.576	0.000	-58.576	-0.000	-0.000	0.000
3626	3615	3616	3617	3	58.576	0.000	-58.576	-0.000	-0.000	0.000
3638	3641	3609	3608	3	0.527	-6.397	-1.695	7.565	-0.000	0.000
3638	3637	3611	3612	3	0.527	-6.397	-1.695	7.565	-0.000	0.000
3638	3637	3611	3610	3	0.527	-6.397	-1.695	7.565	-0.000	0.000
3638	3641	3609	3610	3	0.527	-6.397	-1.695	7.565	-0.000	0.000
3641	3638	3637	3611	3	2.301	-1.464	0.837	-1.674	-0.000	0.000
3640	3638	3641	3609	3	2.301	-1.464	0.837	-1.674	-0.000	0.000
3637	3638	3641	3609	3	2.301	-1.464	0.837	-1.674	-0.000	0.000
3639	3638	3641	3609	3	2.301	-1.464	0.837	-1.674	-0.000	0.000
3640	3638	3637	3611	3	2.301	-1.464	0.837	-1.674	-0.000	0.000
3639	3638	3637	3611	3	2.301	-1.464	0.837	-1.674	-0.000	0.000
3588	3587	3586	3585	3	1.789	3.492	0.536	-5.816	-0.000	0.000
3626	3625	3619	3616	3	30.334	0.000	-30.334	-0.000	-0.000	0.000
3626	3625	3619	3620	3	30.334	0.000	-30.334	-0.000	-0.000	0.000
3619	3616	3615	3614	3	58.576	0.000	-58.576	-0.000	-0.000	0.000
3619	3625	3626	3615	3	1.715	2.845	1.046	-5.607	-0.000	0.000
3617	3616	3615	3614	3	58.576	0.000	-58.576	-0.000	-0.000	0.000
3621	3620	3619	3616	3	58.576	0.000	-58.576	-0.000	-0.000	0.000
3623	3620	3619	3616	3	58.576	0.000	-58.576	-0.000	-0.000	0.000
3634	3633	3626	3627	3	0.000	0.000	0.000	-0.000	-0.000	0.000
3635	3633	3626	3627	3	0.000	0.000	0.000	-0.000	-0.000	0.000
3636	3633	3626	3627	3	0.000	0.000	0.000	-0.000	-0.000	0.000
3635	3633	3626	3615	3	0.000	0.000	0.000	-0.000	-0.000	0.000
3634	3633	3626	3615	3	0.000	0.000	0.000	-0.000	-0.000	0.000
3636	3633	3626	3615	3	0.000	0.000	0.000	-0.000	-0.000	0.000
3635	3633	3626	3625	3	1.130	3.389	0.000	-4.519	-0.000	0.000
3636	3633	3626	3625	3	1.130	3.389	0.000	-4.519	-0.000	0.000
3634	3633	3626	3625	3	1.130	3.389	0.000	-4.519	-0.000	0.000
3664	3610	3609	3608	3	58.576	0.000	-58.576	-0.000	-0.000	0.000
3664	3610	3611	3612	3	58.576	0.000	-58.576	-0.000	-0.000	0.000
3664	3610	3611	3637	3	58.576	0.000	-58.576	-0.000	-0.000	0.000
3664	3610	3609	3641	3	58.576	0.000	-58.576	-0.000	-0.000	0.000
3653	3595	3594	3593	3	30.334	0.000	-30.334	-0.000	-0.000	0.000
3652	3592	3593	3594	3	30.334	0.000	-30.334	-0.000	-0.000	0.000
3658	3601	3593	3594	3	30.334	0.000	-30.334	-0.000	-0.000	0.000
3657	3600	3594	3593	3	30.334	0.000	-30.334	-0.000	-0.000	0.000
3657	3600	3594	3595	3	30.334	0.000	-30.334	-0.000	-0.000	0.000
3653	3595	3594	3600	3	30.334	0.000	-30.334	-0.000	-0.000	0.000
3652	3592	3593	3601	3	30.334	0.000	-30.334	-0.000	-0.000	0.000
3658	3601	3593	3592	3	30.334	0.000	-30.334	-0.000	-0.000	0.000
3651	3591	3592	3593	3	30.334	0.000	-30.334	-0.000	-0.000	0.000
3659	3602	3601	3593	3	30.334	0.000	-30.334	-0.000	-0.000	0.000
3654	3596	3595	3594	3	30.334	0.000	-30.334	-0.000	-0.000	0.000
3656	3599	3600	3594	3	30.334	0.000	-30.334	-0.000	-0.000	0.000
3661	3605	3606	3607	3	30.334	0.000	-30.334	-0.000	-0.000	0.000
3683	3642	3606	3607	3	30.334	0.000	-30.334	-0.000	-0.000	0.000
3668	3628	3629	3630	3	30.334	0.000	-30.334	-0.000	-0.000	0.000
3656	3599	3597	3596	3	30.334	0.000	-30.334	-0.000	-0.000	0.000
3671	3631	3630	3629	3	30.334	0.000	-30.334	-0.000	-0.000	0.000
3683	3642	3643	3603	3	30.334	0.000	-30.334	-0.000	-0.000	0.000
3669	3629	3628	3627	3	30.334	0.000	-30.334	-0.000	-0.000	0.000
3684	3643	3642	3606	3	30.334	0.000	-30.334	-0.000	-0.000	0.000
3670	3630	3629	3628	3	30.334	0.000	-30.334	-0.000	-0.000	0.000
3659	3602	3590	3591	3	30.334	0.000	-30.334	-0.000	-0.000	0.000
3658	3601	3602	3590	3	30.334	0.000	-30.334	-0.000	-0.000	0.000
3683	3642	3606	3605	3	30.334	0.000	-30.334	-0.000	-0.000	0.000
3684	3643	3603	3604	3	30.334	0.000	-30.334	-0.000	-0.000	0.000
3671	3631	3632	3627	3	30.334	0.000	-30.334	-0.000	-0.000	0.000
3668	3628	3627	3632	3	30.334	0.000	-30.334	-0.000	-0.000	0.000
3653	3595	3596	3597	3	30.334	0.000	-30.334	-0.000	-0.000	0.000
3654	3596	3597	3599	3	30.334	0.000	-30.334	-0.000	-0.000	0.000
3651	3591	3590	3602	3	30.334	0.000	-30.334	-0.000	-0.000	0.000
3660	3604	3603	3643	3	30.334	0.000	-30.334	-0.000	-0.000	0.000
3660	3604	3605	3606	3	30.334	0.000	-30.334	-0.000	-0.000	0.000
3657	3600	3599	3597	3	30.334	0.000	-30.334	-0.000	-0.000	0.000
3661	3605	3606	3642	3	30.334	0.000	-30.334	-0.000	-0.000	0.000
3670	3630	3631	3632	3	30.334	0.000	-30.334	-0.000	-0.000	0.000
3672	3632	3631	3630	3	30.334	0.000	-30.334	-0.000	-0.000	0.000
3669	3629	3630	3631	3	30.334	0.000	-30.334	-0.000	-0.000	0.000
3672	3632	3627	3628	3	30.334	0.000	-30.334	-0.000	-0.000	0.000
3652	3592	3591	3590	3	30.334	0.000	-30.334	-0.000	-0.000	0.000
3661	3605	3604	3603	3	30.334	0.000	-30.334	-0.000	-0.000	0.000
3672	3632	3627	3626	3	30.334	0.000	-30.334	-0.000	-0.000	0.000
3668	3628	3627	3626	3	30.334	0.000	-30.334	-0.000	-0.000	0.000
3661	3605	3604	3660	3	30.334	0.000	-30.334	-0.000	-0.000	0.000
3684	3643	3642	3683	3	30.334	0.000	-30.334	-0.000	-0.000	0.000
3670	3630	3629	3669	3	30.334	0.000	-30.334	-0.000	-0.000	0.000
3654	3596	3595	3653	3	30.334	0.000	-30.334	-0.000	-0.000	0.000
3659	3602	3601	3658	3	30.334	0.000	-30.334	-0.000	-0.000	0.000
3657	3600	3599	3656	3	30.334	0.000	-30.334	-0.000	-0.000	0.000
3669	3629	3628	3668	3	30.334	0.000	-30.334	-0.000	-0.000	0.000
3652	3592	3591	3651	3	30.334	0.000	-30.334	-0.000	-0.000	0.000
3671	3631	3630	3670	3	30.334	0.000	-30.334	-0.000	-0.000	0.000
3672	3632	3631	3671	3	30.334	0.000	-30.334	-0.000	-0.000	0.000
3684	3643	3603	3586	3	30.334	0.000	-30.334	-0.000	-0.000	0.000
3660	3604	3603	3586	3	30.334	0.000	-30.334	-0.000	-0.000	0.000
3654	3596	3597	3598	3	0.0	0.0	0.0	-0.0	-0.0	0.0
3656	3599	3597	3598	3	0.0	0.0	0.0	-0.0	-0.0	0.0
3651	3591	3590	3589	3	30.334	0.000	-30.334	-0.000	-0.000	0.000
3659	3602	3590	3589	3	30.334	0.000	-30.334	-0.000	-0.000	0.000
3665	3612	3611	3610	3	58.576	0.000	-58.576	-0.000	-0.000	0.000
3665	3612	3613	3614	3	58.576	0.000	-58.576	-0.000	-0.000	0.000
3667	3614	3613	3612	3	58.576	0.000	-58.576	-0.000	-0.000	0.000
3666	3613	3612	3611	3	58.576	0.000	-58.576	-0.000	-0.000	0.000
3663	3608	3609	3610	3	58.576	0.000	-58.576	-0.000	-0.000	0.000
3662	3607	3608	3609	3	58.576	0.000	-58.576	-0.000	-0.000	0.000
3663	3608	3607	3606	3	58.576	0.000	-58.576	-0.000	-0.000	0.000
3666	3613	3614	3615	3	58.576	0.000	-58.576	-0.000	-0.000	0.000
3665	3612	3611	3637	3	58.576	0.000	-58.576	-0.000	-0.000	0.000
3663	3608	3609	3641	3	58.576	0.000	-58.576	-0.000	-0.000	0.000
3663	3608	3607	3662	3	58.576	0.000	-58.576	-0.000	-0.000	0.000
3666	3613	3612	3665	3	58.576	0.000	-58.576	-0.000	-0.000	0.000
3667	3614	3613	3666	3	58.576	0.000	-58.576	-0.000	-0.000	0.000
3662	3607	3606	3642	3	-0.778	-2.335	0.000	3.113	-0.000	0.000
3662	3607	3606	3605	3	-0.778	-2.335	0.000	3.113	-0.000	0.000
3667	3614	3615	3616	3	58.576	0.000	-58.576	-0.000	-0.000	0.000
3667	3614	3615	3626	3	58.576	0.000	-58.576	-0.000	-0.000	0.000
3681	3641	3609	3608	3	-0.778	-2.335	0.000	3.113	-0.000	0.000
3681	3641	3609	3610	3	-0.778	-2.335	0.000	3.113	-0.000	0.000
3682	3641	3609	3608	3	-0.778	-2.335	0.000	3.113	-0.000	0.000
3674	3637	3611	3612	3	-0.778	-2.335	0.000	3.113	-0.000	0.000
3682	3641	3609	3610	3	-0.778	-2.335	0.000	3.113	-0.000	0.000
3673	3637	3611	3610	3	-0.778	-2.335	0.000	3.113	-0.000	0.000
3674	3637	3611	3610	3	-0.778	-2.335	0.000	3.113	-0.000	0.000
3673	3637	3611	3612	3	-0.778	-2.335	0.000	3.113	-0.000	0.000
3676	3639	3638	3641	3	0.628	1.883	0.000	-2.510	-0.000	0.000
3675	3639	3638	3640	3	0.628	1.883	0.000	-2.510	-0.000	0.000
3675	3639	3638	3637	3	0.628	1.883	0.000	-2.510	-0.000	0.000
3677	3639	3638	3640	3	0.628	1.883	0.000	-2.510	-0.000	0.000
3679	3640	3638	3637	3	0.628	1.883	0.000	-2.510	-0.000	0.000
3678	3640	3638	3637	3	0.628	1.883	0.000	-2.510	-0.000	0.000
3677	3639	3638	3637	3	0.628	1.883	0.000	-2.510	-0.000	0.000
3679	3640	3638	3639	3	0.628	1.883	0.000	-2.510	-0.000	0.000
3676	3639	3638	3637	3	0.628	1.883	0.000	-2.510	-0.000	0.000
3681	3641	3638	3637	3	0.628	1.883	0.000	-2.510	-0.000	0.000
3681	3641	3638	3639	3	0.628	1.883	0.000	-2.510	-0.000	0.000
3674	3637	3638	3639	3	0.628	1.883	0.000	-2.510	-0.000	0.000
3677	3639	3638	3641	3	0.628	1.883	0.000	-2.510	-0.000	0.000
3674	3637	3638	3640	3	0.628	1.883	0.000	-2.510	-0.000	0.000
3682	3641	3638	3639	3	0.628	1.883	0.000	-2.510	-0.000	0.000
3678	3640	3638	3641	3	0.628	1.883	0.000	-2.510	-0.000	0.000
3679	3640	3638	3641	3	0.628	1.883	0.000	-2.510	-0.000	0.000
3680	3640	3638	3637	3	0.628	1.883	0.000	-2.510	-0.000	0.000
3673	3637	3638	3640	3	0.628	1.883	0.000	-2.510	-0.000	0.000
3673	3637	3638	3639	3	0.628	1.883	0.000	-2.510	-0.000	0.000
3678	3640	3638	3639	3	0.628	1.883	0.000	-2.510	-0.000	0.000
3674	3637	3638	3641	3	0.628	1.883	0.000	-2.510	-0.000	0.000
3682	3641	3638	3640	3	0.628	1.883	0.000	-2.510	-0.000	0.000
3676	3639	3638	3640	3	0.628	1.883	0.000	-2.510	-0.000	0.000
3675	3639	3638	3641	3	0.628	1.883	0.000	-2.510	-0.000	0.000
3682	3641	3638	3637	3	0.628	1.883	0.000	-2.510	-0.000	0.000
3673	3637	3638	3641	3	0.628	1.883	0.000	-2.510	-0.000	0.000
3680	3640	3638	3639	3	0.628	1.883	0.000	-2.510	-0.000	0.000
3681	3641	3638	3640	3	0.628	1.883	0.000	-2.510	-0.000	0.000
3680	3640	3638	3641	3	0.628	1.883	0.000	-2.510	-0.000	0.000
3649	3588	3587	3648	3	0.628	1.883	0.000	-2.510	-0.000	0.000
3650	3588	3587	3647	3	0.628	1.883	0.000	-2.510	-0.000	0.000
3649	3588	3587	3647	3	0.628	1.883	0.000	-2.510	-0.000	0.000
3650	3588	3587	3648	3	0.628	1.883	0.000	-2.510	-0.000	0.000
3650	3588	3587	3586	3	-4.096	5.088	2.966	-3.958	-0.000	0.000
3649	3588	3587	3586	3	-4.096	5.088	2.966	-3.958	-0.000	0.000
3648	3587	3588	3589	3	0.979	2.937	0.000	-3.916	-0.000	0.000
3647	3587	3588	3589	3	0.979	2.937	0.000	-3.916	-0.000	0.000
3648	3587	3586	3603	3	1.172	3.515	0.000	-4.686	-0.000	0.000
3644	3585	3586	3603	3	1.172	3.515	0.000	-4.686	-0.000	0.000
3647	3587	3586	3603	3	1.172	3.515	0.000	-4.686	-0.000	0.000
3645	3585	3586	3603	3	1.172	3.515	0.000	-4.686	-0.000	0.000
3646	3585	3586	3603	3	1.172	3.515	0.000	-4.686	-0.000	0.000
3647	3587	3586	3585	3	1.172	3.515	0.000	-4.686	-0.000	0.000
3645	3585	3586	3587	3	1.172	3.515	0.000	-4.686	-0.000	0.000
3648	3587	3586	3585	3	1.172	3.515	0.000	-4.686	-0.000	0.000
3646	3585	3586	3587	3	1.172	3.515	0.000	-4.686	-0.000	0.000
3644	3585	3586	3587	3	1.172	3.515	0.000	-4.686	-0.000	0.000
3649	3588	3589	3590	3	1.590	4.770	0.000	-6.360	-0.000	0.000
3650	3588	3589	3590	3	1.590	4.770	0.000	-6.360	-0.000	0.000
3655	3598	3597	3599	3	0.0	0.0	0.0	-0.0	-0.0	0.0
3655	3598	3597	3596	3	0.0	0.0	0.0	-0.0	-0.0	0.0
3598	3597	3596	3595	3	0.0	0.0	0.0	-0.0	-0.0	0.0
3625	3626	3615	3614	3	2.874	0.582	2.092	-5.548	-0.000	0.000
3625	3626	3615	3616	3	1.046	-1.046	0.000	-0.000	-0.000	0.000
3589	3588	3587	3586	3	16.736	-16.736	0.000	-0.000	-0.000	0.000
3625	3619	3616	3615	3	1.046	-1.046	0.000	-0.000	-0.000	0.000
3625	3619	3616	3617	3	9.079	0.000	-9.079	-0.000	-0.000	0.000
3694	3693	3692	3691	3	30.334	0.000	-30.334	-0.000	-0.000	0.000
3693	3701	3702	3690	3	30.334	0.000	-30.334	-0.000	-0.000	0.000
3693	3692	3691	3690	3	30.334	0.000	-30.334	-0.000	-0.000	0.000
3714	3713	3712	3711	3	21.738	2.408	-16.966	-7.180	-0.000	0.000
3710	3709	3708	3707	3	21.738	2.408	-16.966	-7.180	-0.000	0.000
3711	3710	3709	3708	3	21.738	2.408	-16.966	-7.180	-0.000	0.000
3712	3711	3710	3709	3	21.738	2.408	-16.966	-7.180	-0.000	0.000
3713	3712	3711	3710	3	21.738	2.408	-16.966	-7.180	-0.000	0.000
3709	3708	3707	3706	3	58.576	0.000	-58.576	-0.000	-0.000	0.000
3708	3707	3706	3705	3	16.027	-4.391	-14.029	2.393	-0.000	0.000
3707	3706	3705	3704	3	30.334	0.000	-30.334	-0.000	-0.000	0.000
3716	3715	3714	3713	3	58.576	0.000	-58.576	-0.000	-0.000	0.000
3701	3693	3694	3700	3	9.079	0.000	-9.079	-0.000	-0.000	0.000
3700	3694	3693	3692	3	9.079	0.000	-9.079	-0.000	-0.000	0.000
3701	3693	3694	3695	3	9.079	0.000	-9.079	-0.000	-0.000	0.000
3695	3694	3693	3692	3	9.079	0.000	-9.079	-0.000	-0.000	0.000
3700	3694	3695	3696	3	30.334	0.000	-30.334	-0.000	-0.000	0.000
3701	3693	3692	3691	3	30.334	0.000	-30.334	-0.000	-0.000	0.000
3699	3700	3694	3693	3	30.334	0.000	-30.334	-0.000	-0.000	0.000
3702	3701	3693	3694	3	30.334	0.000	-30.334	-0.000	-0.000	0.000
3696	3695	3694	3693	3	30.334	0.000	-30.334	-0.000	-0.000	0.000
3699	3700	3694	3695	3	30.334	0.000	-30.334	-0.000	-0.000	0.000
3702	3701	3693	3692	3	30.334	0.000	-30.334	-0.000	-0.000	0.000
3742	3706	3707	3708	3	16.027	-4.391	-14.029	2.393	-0.000	0.000
3697	3699	3700	3694	3	30.334	0.000	-30.334	-0.000	-0.000	0.000
3697	3696	3695	3694	3	30.334	0.000	-30.334	-0.000	-0.000	0.000
3743	3742	3706	3707	3	30.334	0.000	-30.334	-0.000	-0.000	0.000
3732	3727	3728	3729	3	30.334	0.000	-30.334	-0.000	-0.000	0.000
3743	3742	3706	3705	3	30.334	0.000	-30.334	-0.000	-0.000	0.000
3702	3690	3691	3692	3	30.334	0.000	-30.334	-0.000	-0.000	0.000
3742	3743	3703	3704	3	30.334	0.000	-30.334	-0.000	-0.000	0.000
3732	3731	3730	3729	3	30.334	0.000	-30.334	-0.000	-0.000	0.000
3731	3730	3729	3728	3	30.334	0.000	-30.334	-0.000	-0.000	0.000
3730	3729	3728	3727	3	30.334	0.000	-30.334	-0.000	-0.000	0.000
3706	3705	3704	3703	3	30.334	0.000	-30.334	-0.000	-0.000	0.000
3706	3742	3743	3703	3	30.334	0.000	-30.334	-0.000	-0.000	0.000
3743	3703	3704	3705	3	30.334	0.000	-30.334	-0.000	-0.000	0.000
3742	3706	3705	3704	3	30.334	0.000	-30.334	-0.000	-0.000	0.000
3731	3732	3727	3728	3	30.334	0.000	-30.334	-0.000	-0.000	0.000
3700	3699	3697	3696	3	30.334	0.000	-30.334	-0.000	-0.000	0.000
3701	3702	3690	3691	3	30.334	0.000	-30.334	-0.000	-0.000	0.000
3730	3731	3732	3727	3	30.334	0.000	-30.334	-0.000	-0.000	0.000
3699	3697	3696	3695	3	30.334	0.000	-30.334	-0.000	-0.000	0.000
3731	3732	3727	3726	3	30.334	0.000	-30.334	-0.000	-0.000	0.000
3729	3728	3727	3726	3	30.334	0.000	-30.334	-0.000	-0.000	0.000
3742	3743	3703	3686	3	30.334	0.000	-30.334	-0.000	-0.000	0.000
3705	3704	3703	3686	3	30.334	0.000	-30.334	-0.000	-0.000	0.000
3700	3699	3697	3698	3	0.0	0.0	0.0	-0.0	-0.0	0.0
3692	3691	3690	3689	3	30.334	0.000	-30.334	-0.000	-0.000	0.000
3701	3702	3690	3689	3	30.334	0.000	-30.334	-0.000	-0.000	0.000
3732	3727	3726	3715	3	0.000	0.000	0.000	-0.000	-0.000	0.000
3728	3727	3726	3715	3	0.000	0.000	0.000	-0.000	-0.000	0.000
3732	3727	3726	3725	3	0.000	0.000	0.000	-0.000	-0.000	0.000
3728	3727	3726	3725	3	0.000	0.000	0.000	-0.000	-0.000	0.000
3743	3703	3686	3687	3	5.184	35.932	-14.355	-26.761	-0.000	0.000
3704	3703	3686	3687	3	5.184	35.932	-14.355	-26.761	-0.000	0.000
3704	3703	3686	3685	3	5.184	35.932	-14.355	-26.761	-0.000	0.000
3743	3703	3686	3685	3	5.184	35.932	-14.355	-26.761	-0.000	0.000
3691	3690	3689	3688	3	12.552	0.000	-12.552	-0.000	-0.000	0.000
3702	3690	3689	3688	3	12.552	0.000	-12.552	-0.000	-0.000	0.000
3727	3726	3715	3714	3	6.322	-2.485	0.707	-4.544	-0.000	0.000
3727	3726	3715	3716	3	0.527	-6.397	-1.695	7.565	-0.000	0.000
3727	3726	3725	3719	3	1.715	2.845	1.046	-5.607	-0.000	0.000
3703	3686	3687	3688	3	1.789	3.492	0.536	-5.816	-0.000	0.000
3690	3689	3688	3687	3	1.715	2.845	1.046	-5.607	-0.000	0.000
3733	3726	3727	3728	3	0.000	0.000	0.000	-0.000	-0.000	0.000
3733	3726	3727	3732	3	0.000	0.000	0.000	-0.000	-0.000	0.000
3733	3726	3715	3714	3	6.322	-2.485	0.707	-4.544	-0.000	0.000
3733	3726	3715	3716	3	0.527	-6.397	-1.695	7.565	-0.000	0.000
3733	3726	3725	3719	3	1.715	2.845	1.046	-5.607	-0.000	0.000
3715	3714	3713	3712	3	21.738	2.408	-16.966	-7.180	-0.000	0.000
3720	3719	3716	3715	3	21.738	2.408	-16.966	-7.180	-0.000	0.000
3720	3719	3716	3717	3	-0.778	-2.335	0.000	3.113	-0.000	0.000
3741	3709	3708	3707	3	58.576	0.000	-58.576	-0.000	-0.000	0.000
3737	3711	3710	3709	3	58.576	0.000	-58.576	-0.000	-0.000	0.000
3741	3709	3710	3711	3	58.576	0.000	-58.576	-0.000	-0.000	0.000
3737	3711	3712	3713	3	58.576	0.000	-58.576	-0.000	-0.000	0.000
3726	3715	3714	3713	3	-0.778	-2.335	0.000	3.113	-0.000	0.000
3726	3715	3716	3719	3	58.576	0.000	-58.576	-0.000	-0.000	0.000
3726	3715	3716	3717	3	58.576	0.000	-58.576	-0.000	-0.000	0.000
3738	3741	3709	3708	3	0.527	-6.397	-1.695	7.565	-0.000	0.000
3738	3737	3711	3712	3	0.527	-6.397	-1.695	7.565	-0.000	0.000
3738	3737	3711	3710	3	0.527	-6.397	-1.695	7.565	-0.000	0.000
3738	3741	3709	3710	3	0.527	-6.397	-1.695	7.565	-0.000	0.000
3741	3738	3737	3711	3	2.301	-1.464	0.837	-1.674	-0.000	0.000
3740	3738	3741	3709	3	2.301	-1.464	0.837	-1.674	-0.000	0.000
3737	3738	3741	3709	3	2.301	-1.464	0.837	-1.674	-0.000	0.000
3739	3738	3741	3709	3	2.301	-1.464	0.837	-1.674	-0.000	0.000
3740	3738	3737	3711	3	2.301	-1.464	0.837	-1.674	-0.000	0.000
3739	3738	3737	3711	3	2.301	-1.464	0.837	-1.674	-0.000	0.000
3688	3687	3686	3685	3	1.789	3.492	0.536	-5.816	-0.000	0.000
3726	3725	3719	3716	3	30.334	0.000	-30.334	-0.000	-0.000	0.000
3726	3725	3719	3720	3	30.334	0.000	-30.334	-0.000	-0.000	0.000
3719	3716	3715	3714	3	58.576	0.000	-58.576	-0.000	-0.000	0.000
3719	3725	3726	3715	3	1.715	2.845	1.046	-5.607	-0.000	0.000
3717	3716	3715	3714	3	58.576	0.000	-58.576	-0.000	-0.000	0.000
3721	3720	3719	3716	3	58.576	0.000	-58.576	-0.000	-0.000	0.000
3723	3720	3719	3716	3	58.576	0.000	-58.576	-0.000	-0.000	0.000
3734	3733	3726	3727	3	0.000	0.000	0.000	-0.000	-0.000	0.000
3735	3733	3726	3727	3	0.000	0.000	0.000	-0.000	-0.000	0.000
3736	3733	3726	3727	3	0.000	0.000	0.000	-0.000	-0.000	0.000
3735	3733	3726	3715	3	0.000	0.000	0.000	-0.000	-0.000	0.000
3734	3733	3726	3715	3	0.000	0.000	0.000	-0.000	-0.000	0.000
3736	3733	3726	3715	3	0.000	0.000	0.000	-0.000	-0.000	0.000
3735	3733	3726	3725	3	1.130	3.389	0.000	-4.519	-0.000	0.000
3736	3733	3726	3725	3	1.130	3.389	0.000	-4.519	-0.000	0.000
3734	3733	3726	3725	3	1.130	3.389	0.000	-4.519	-0.000	0.000
3764	3710	3709	3708	3	58.576	0.000	-58.576	-0.000	-0.000	0.000
3764	3710	3711	3712	3	58.576	0.000	-58.576	-0.000	-0.000	0.000
3764	3710	3711	3737	3	58.576	0.000	-58.576	-0.000	-0.000	0.000
3764	3710	3709	3741	3	58.576	0.000	-58.576	-0.000	-0.000	0.000
3753	3695	3694	3693	3	30.334	0.000	-30.334	-0.000	-0.000	0.000
3752	3692	3693	3694	3	30.334	0.000	-30.334	-0.000	-0.000	0.000
3758	3701	3693	3694	3	30.334	0.000	-30.334	-0.000	-0.000	0.000
3757	3700	3694	3693	3	30.334	0.000	-30.334	-0.000	-0.000	0.000
3757	3700	3694	3695	3	30.334	0.000	-30.334	-0.000	-0.000	0.000
3753	3695	3694	3700	3	30.334	0.000	-30.334	-0.000	-0.000	0.000
3752	3692	3693	3701	3	30.334	0.000	-30.334	-0.000	-0.000	0.000
3758	3701	3693	3692	3	30.334	0.000	-30.334	-0.000	-0.000	0.000
3751	3691	3692	3693	3	30.334	0.000	-30.334	-0.000	-0.000	0.000
3759	3702	3701	3693	3	30.334	0.000	-30.334	-0.000	-0.000	0.000
3754	3696	3695	3694	3	30.334	0.000	-30.334	-0.000	-0.000	0.000
3756	3699	3700	3694	3	30.334	0.000	-30.334	-0.000	-0.000	0.000
3761	3705	3706	3707	3	30.334	0.000	-30.334	-0.000	-0.000	0.000
3783	3742	3706	3707	3	30.334	0.000	-30.334	-0.000	-0.000	0.000
3768	3728	3729	3730	3	30.334	0.000	-30.334	-0.000	-0.000	0.000
3756	3699	3697	3696	3	30.334	0.000	-30.334	-0.000	-0.000	0.000
3771	3731	3730	3729	3	30.334	0.000	-30.334	-0.000	-0.000	0.000
3783	3742	3743	3703	3	30.334	0.000	-30.334	-0.000	-0.000	0.000
3769	3729	3728	3727	3	30.334	0.000	-30.334	-0.000	-0.000	0.000
3784	3743	3742	3706	3	30.334	0.000	-30.334	-0.000	-0.000	0.000
3770	3730	3729	3728	3	30.334	0.000	-30.334	-0.000	-0.000	0.000
3759	3702	3690	3691	3	30.334	0.000	-30.334	-0.000	-0.000	0.000
3758	3701	3702	3690	3	30.334	0.000	-30.334	-0.000	-0.000	0.000
3783	3742	3706	3705	3	30.334	0.000	-30.334	-0.000	-0.000	0.000
3784	3743	3703	3704	3	30.334	0.000	-30.334	-0.000	-0.000	0.000
3771	3731	3732	3727	3	30.334	0.000	-30.334	-0.000	-0.000	0.000
3768	3728	3727	3732	3	30.334	0.000	-30.334	-0.000	-0.000	0.000
3753	3695	3696	3697	3	30.334	0.000	-30.334	-0.000	-0.000	0.000
3754	3696	3697	3699	3	30.334	0.000	-30.334	-0.000	-0.000	0.000
3751	3691	3690	3702	3	30.334	0.000	-30.334	-0.000	-0.000	0.000
3760	3704	3703	3743	3	30.334	0.000	-30.334	-0.000	-0.000	0.000
3760	3704	3705	3706	3	30.334	0.000	-30.334	-0.000	-0.000	0.000
3757	3700	3699	3697	3	30.334	0.000	-30.334	-0.000	-0.000	0.000
3761	3705	3706	3742	3	30.334	0.000	-30.334	-0.000	-0.000	0.000
3770	3730	3731	3732	3	30.334	0.000	-30.334	-0.000	-0.000	0.000
3772	3732	3731	3730	3	30.334	0.000	-30.334	-0.000	-0.000	0.000
3769	3729	3730	3731	3	30.334	0.000	-30.334	-0.000	-0.000	0.000
3772	3732	3727	3728	3	30.334	0.000	-30.334	-0.000	-0.000	0.000
3752	3692	3691	3690	3	30.334	0.000	-30.334	-0.000	-0.000	0.000
3761	3705	3704	3703	3	30.334	0.000	-30.334	-0.000	-0.000	0.000
3772	3732	3727	3726	3	30.334	0.000	-30.334	-0.000	-0.000	0.000
3768	3728	3727	3726	3	30.334	0.000	-30.334	-0.000	-0.000	0.000
3761	3705	3704	3760	3	30.334	0.000	-30.334	-0.000	-0.000	0.000
3784	3743	3742	3783	3	30.334	0.000	-30.334	-0.000	-0.000	0.000
3770	3730	3729	3769	3	30.334	0.000	-30.334	-0.000	-0.000	0.000
3754	3696	3695	3753	3	30.334	0.000	-30.334	-0.000	-0.000	0.000
3759	3702	3701	3758	3	30.334	0.000	-30.334	-0.000	-0.000	0.000
3757	3700	3699	3756	3	30.334	0.000	-30.334	-0.000	-0.000	0.000
3769	3729	3728	3768	3	30.334	0.000	-30.334	-0.000	-0.000	0.000
3752	3692	3691	3751	3	30.334	0.000	-30.334	-0.000	-0.000	0.000
3771	3731	3730	3770	3	30.334	0.000	-30.334	-0.000	-0.000	0.000
3772	3732	3731	3771	3	30.334	0.000	-30.334	-0.000	-0.000	0.000
3784	3743	3703	3686	3	30.334	0.000	-30.334	-0.000	-0.000	0.000
3760	3704	3703	3686	3	30.334	0.000	-30.334	-0.000	-0.000	0.000
3754	3696	3697	3698	3	0.0	0.0	0.0	-0.0	-0.0	0.0
3756	3699	3697	3698	3	0.0	0.0	0.0	-0.0	-0.0	0.0
3751	3691	3690	3689	3	30.334	0.000	-30.334	-0.000	-0.000	0.000
3759	3702	3690	3689	3	30.334	0.000	-30.334	-0.000	-0.000	0.000
3765	3712	3711	3710	3	58.576	0.000	-58.576	-0.000	-0.000	0.000
3765	3712	3713	3714	3	58.576	0.000	-58.576	-0.000	-0.000	0.000
3767	3714	3713	3712	3	58.576	0.000	-58.576	-0.000	-0.000	0.000
3766	3713	3712	3711	3	58.576	0.000	-58.576	-0.000	-0.000	0.000
3763	3708	3709	3710	3	58.576	0.000	-58.576	-0.000	-0.000	0.000
3762	3707	3708	3709	3	58.576	0.000	-58.576	-0.000	-0.000	0.000
3763	3708	3707	3706	3	58.576	0.000	-58.576	-0.000	-0.000	0.000
3766	3713	3714	3715	3	58.576	0.000	-58.576	-0.000	-0.000	0.000
3765	3712	3711	3737	3	58.576	0.000	-58.576	-0.000	-0.000	0.000
3763	3708	3709	3741	3	58.576	0.000	-58.576	-0.000	-0.000	0.000
3763	3708	3707	3762	3	58.576	0.000	-58.576	-0.000	-0.000	0.000
3766	3713	3712	3765	3	58.576	0.000	-58.576	-0.000	-0.000	0.000
3767	3714	3713	3766	3	58.576	0.000	-58.576	-0.000	-0.000	0.000
3762	3707	3706	3742	3	-0.778	-2.335	0.000	3.113	-0.000	0.000
3762	3707	3706	3705	3	-0.778	-2.335	0.000	3.113	-0.000	0.000
3767	3714	3715	3716	3	58.576	0.000	-58.576	-0.000	-0.000	0.000
3767	3714	3715	3726	3	58.576	0.000	-58.576	-0.000	-0.000	0.000
3781	3741	3709	3708	3	-0.778	-2.335	0.000	3.113	-0.000	0.000
3781	3741	3709	3710	3	-0.778	-2.335	0.000	3.113	-0.000	0.000
3782	3741	3709	3708	3	-0.778	-2.335	0.000	3.113	-0.000	0.000
3774	3737	3711	3712	3	-0.778	-2.335	0.000	3.113	-0.000	0.000
3782	3741	3709	3710	3	-0.778	-2.335	0.000	3.113	-0.000	0.000
3773	3737	3711	3710	3	-0.778	-2.335	0.000	3.113	-0.000	0.000
3774	3737	3711	3710	3	-0.778	-2.335	0.000	3.113	-0.000	0.000
3773	3737	3711	3712	3	-0.778	-2.335	0.000	3.113	-0.000	0.000
3776	3739	3738	3741	3	0.628	1.883	0.000	-2.510	-0.000	0.000
3775	3739	3738	3740	3	0.628	1.883	0.000	-2.510	-0.000	0.000
3775	3739	3738	3737	3	0.628	1.883	0.000	-2.510	-0.000	0.000
3777	3739	3738	3740	3	0.628	1.883	0.000	-2.510	-0.000	0.000
3779	3740	3738	3737	3	0.628	1.883	0.000	-2.510	-0.000	0.000
3778	3740	3738	3737	3	0.628	1.883	0.000	-2.510	-0.000	0.000
3777	3739	3738	3737	3	0.628	1.883	0.000	-2.510	-0.000	0.000
3779	3740	3738	3739	3	0.628	1.883	0.000	-2.510	-0.000	0.000
3776	3739	3738	3737	3	0.628	1.883	0.000	-2.510	-0.000	0.000
3781	3741	3738	3737	3	0.628	1.883	0.000	-2.510	-0.000	0.000
3781	3741	3738	3739	3	0.628	1.883	0.000	-2.510	-0.000	0.000
3774	3737	3738	3739	3	0.628	1.883	0.000	-2.510	-0.000	0.000
3777	3739	3738	3741	3	0.628	1.883	0.000	-2.510	-0.000	0.000
3774	3737	3738	3740	3	0.628	1.883	0.000	-2.510	-0.000	0.000
3782	3741	3738	3739	3	0.628	1.883	0.000	-2.510	-0.000	0.000
3778	3740	3738	3741	3	0.628	1.883	0.000	-2.510	-0.000	0.000
3779	3740	3738	3741	3	0.628	1.883	0.000	-2.510	-0.000	0.000
3780	3740	3738	3737	3	0.628	1.883	0.000	-2.510	-0.000	0.000
3773	3737	3738	3740	3	0.628	1.883	0.000	-2.510	-0.000	0.000
3773	3737	3738	3739	3	0.628	1.883	0.000	-2.510	-0.000	0.000
3778	3740	3738	3739	3	0.628	1.883	0.000	-2.510	-0.000	0.000
3774	3737	3738	3741	3	0.628	1.883	0.000	-2.510	-0.000	0.000
3782	3741	3738	3740	3	0.628	1.883	0.000	-2.510	-0.000	0.000
3776	3739	3738	3740	3	0.628	1.883	0.000	-2.510	-0.000	0.000
3775	3739	3738	3741	3	0.628	1.883	0.000	-2.510	-0.000	0.000
3782	3741	3738	3737	3	0.628	1.883	0.000	-2.510	-0.000	0.000
3773	3737	3738	3741	3	0.628	1.883	0.000	-2.510	-0.000	0.000
3780	3740	3738	3739	3	0.628	1.883	0.000	-2.510	-0.000	0.000
3781	3741	3738	3740	3	0.628	1.883	0.000	-2.510	-0.000	0.000
3780	3740	3738	3741	3	0.628	1.883	0.000	-2.510	-0.000	0.000
3749	3688	3687	3748	3	0.628	1.883	0.000	-2.510	-0.000	0.000
3750	3688	3687	3747	3	0.628	1.883	0.000	-2.510	-0.000	0.000
3749	3688	3687	3747	3	0.628	1.883	0.000	-2.510	-0.000	0.000
3750	3688	3687	3748	3	0.628	1.883	0.000	-2.510	-0.000	0.000
3750	3688	3687	3686	3	-4.096	5.088	2.966	-3.958	-0.000	0.000
3749	3688	3687	3686	3	-4.096	5.088	2.966	-3.958	-0.000	0.000
3748	3687	3688	3689	3	0.979	2.937	0.000	-3.916	-0.000	0.000
3747	3687	3688	3689	3	0.979	2.937	0.000	-3.916	-0.000	0.000
3748	3687	3686	3703	3	1.172	3.515	0.000	-4.686	-0.000	0.000
3744	3685	3686	3703	3	1.172	3.515	0.000	-4.686	-0.000	0.000
3747	3687	3686	3703	3	1.172	3.515	0.000	-4.686	-0.000	0.000
3745	3685	3686	3703	3	1.172	3.515	0.000	-4.686	-0.000	0.000
3746	3685	3686	3703	3	1.172	3.515	0.000	-4.686	-0.000	0.000
3747	3687	3686	3685	3	1.172	3.515	0.000	-4.686	-0.000	0.000
3745	3685	3686	3687	3	1.172	3.515	0.000	-4.686	-0.000	0.000
3748	3687	3686	3685	3	1.172	3.515	0.000	-4.686	-0.000	0.000
3746	3685	3686	3687	3	1.172	3.515	0.000	-4.686	-0.000	0.000
3744	3685	3686	3687	3	1.172	3.515	0.000	-4.686	-0.000	0.000
3749	3688	3689	3690	3	1.590	4.770	0.000	-6.360	-0.000	0.000
3750	3688	3689	3690	3	1.590	4.770	0.000	-6.360	-0.000	0.000
3755	3698	3697	3699	3	0.0	0.0	0.0	-0.0	-0.0	0.0
3755	3698	3697	3696	3	0.0	0.0	0.0	-0.0	-0.0	0.0
3698	3697	3696	3695	3	0.0	0.0	0.0	-0.0	-0.0	0.0
3725	3726	3715	3714	3	2.874	0.582	2.092	-5.548	-0.000	0.000
3725	3726	3715	3716	3	1.046	-1.046	0.000	-0.000	-0.000	0.000
3689	3688	3687	3686	3	16.736	-16.736	0.000	-0.000	-0.000	0.000
3725	3719	3716	3715	3	1.046	-1.046	0.000	-0.000	-0.000	0.000
3725	3719	3716	3717	3	9.079	0.000	-9.079	-0.000	-0.000	0.000
3794	3793	3792	3791	3	30.334	0.000	-30.334	-0.000	-0.000	0.000
3793	3801	3802	3790	3	30.334	0.000	-30.334	-0.000	-0.000	0.000
3793	3792	3791	3790	3	30.334	0.000	-30.334	-0.000	-0.000	0.000
3814	3813	3812	3811	3	21.738	2.408	-16.966	-7.180	-0.000	0.000
3810	3809	3808	3807	3	21.738	2.408	-16.966	-7.180	-0.000	0.000
3811	3810	3809	3808	3	21.738	2.408	-16.966	-7.180	-0.000	0.000
3812	3811	3810	3809	3	21.738	2.408	-16.966	-7.180	-0.000	0.000
3813	3812	3811	3810	3	21.738	2.408	-16.966	-7.180	-0.000	0.000
3809	3808	3807	3806	3	58.576	0.000	-58.576	-0.000	-0.000	0.000
3808	3807	3806	3805	3	16.027	-4.391	-14.029	2.393	-0.000	0.000
3807	3806	3805	3804	3	30.334	0.000	-30.334	-0.000	-0.000	0.000
3816	3815	3814	3813	3	58.576	0.000	-58.576	-0.000	-0.000	0.000
3801	3793	3794	3800	3	9.079	0.000	-9.079	-0.000	-0.000	0.000
3800	3794	3793	3792	3	9.079	0.000	-9.079	-0.000	-0.000	0.000
3801	3793	3794	3795	3	9.079	0.000	-9.079	-0.000	-0.000	0.000
3795	3794	3793	3792	3	9.079	0.000	-9.079	-0.000	-0.000	0.000
3800	3794	3795	3796	3	30.334	0.000	-30.334	-0.000	-0.000	0.000
3801	3793	3792	3791	3	30.334	0.000	-30.334	-0.000	-0.000	0.000
3799	3800	3794	3793	3	30.334	0.000	-30.334	-0.000	-0.000	0.000
3802	3801	3793	3794	3	30.334	0.000	-30.334	-0.000	-0.000	0.000
3796	3795	3794	3793	3	30.334	0.000	-30.334	-0.000	-0.000	0.000
3799	3800	3794	3795	3	30.334	0.000	-30.334	-0.000	-0.000	0.000
3802	3801	3793	3792	3	30.334	0.000	-30.334	-0.000	-0.000	0.000
3842	3806	3807	3808	3	16.027	-4.391	-14.029	2.393	-0.000	0.000
3797	3799	3800	3794	3	30.334	0.000	-30.334	-0.000	-0.000	0.000
3797	3796	3795	3794	3	30.334	0.000	-30.334	-0.000	-0.000	0.000
3843	3842	3806	3807	3	30.334	0.000	-30.334	-0.000	-0.000	0.000
3832	3827	3828	3829	3	30.334	0.000	-30.334	-0.000	-0.000	0.000
3843	3842	3806	3805	3	30.334	0.000	-30.334	-0.000	-0.000	0.000
3802	3790	3791	3792	3	30.334	0.000	-30.334	-0.000	-0.000	0.000
3842	3843	3803	3804	3	30.334	0.000	-30.334	-0.000	-0.000	0.000
3832	3831	3830	3829	3	30.334	0.000	-30.334	-0.000	-0.000	0.000
3831	3830	3829	3828	3	30.334	0.000	-30.334	-0.000	-0.000	0.000
3830	3829	3828	3827	3	30.334	0.000	-30.334	-0.000	-0.000	0.000
3806	3805	3804	3803	3	30.334	0.000	-30.334	-0.000	-0.000	0.000
3806	3842	3843	3803	3	30.334	0.000	-30.334	-0.000	-0.000	0.000
3843	3803	3804	3805	3	30.334	0.000	-30.334	-0.000	-0.000	0.000
3842	3806	3805	3804	3	30.334	0.000	-30.334	-0.000	-0.000	0.000
3831	3832	3827	3828	3	30.334	0.000	-30.334	-0.000	-0.000	0.000
3800	3799	3797	3796	3	30.334	0.000	-30.334	-0.000	-0.000	0.000
3801	3802	3790	3791	3	30.334	0.000	-30.334	-0.000	-0.000	0.000
3830	3831	3832	3827	3	30.334	0.000	-30.334	-0.000	-0.000	0.000
3799	3797	3796	3795	3	30.334	0.000	-30.334	-0.000	-0.000	0.000
3831	3832	3827	3826	3	30.334	0.000	-30.334	-0.000	-0.000	0.000
3829	3828	3827	3826	3	30.334	0.000	-30.334	-0.000	-0.000	0.000
3842	3843	3803	3786	3	30.334	0.000	-30.334	-0.000	-0.000	0.000
3805	3804	3803	3786	3	30.334	0.000	-30.334	-0.000	-0.000	0.000
3800	3799	3797	3798	3	0.0	0.0	0.0	-0.0	-0.0	0.0
3792	3791	3790	3789	3	30.334	0.000	-30.334	-0.000	-0.000	0.000
3801	3802	3790	3789	3	30.334	0.000	-30.334	-0.000	-0.000	0.000
3832	3827	3826	3815	3	0.000	0.000	0.000	-0.000	-0.000	0.000
3828	3827	3826	3815	3	0.000	0.000	0.000	-0.000	-0.000	0.000
3832	3827	3826	3825	3	0.000	0.000	0.000	-0.000	-0.000	0.000
3828	3827	3826	3825	3	0.000	0.000	0.000	-0.000	-0.000	0.000
3843	3803	3786	3787	3	5.184	35.932	-14.355	-26.761	-0.000	0.000
3804	3803	3786	3787	3	5.184	35.932	-14.355	-26.761	-0.000	0.000
3804	3803	3786	3785	3	5.184	35.932	-14.355	-26.761	-0.000	0.000
3843	3803	3786	3785	3	5.184	35.932	-14.355	-26.761	-0.000	0.000
3791	3790	3789	3788	3	12.552	0.000	-12.552	-0.000	-0.000	0.000
3802	3790	3789	3788	3	12.552	0.000	-12.552	-0.000	-0.000	0.000
3827	3826	3815	3814	3	6.322	-2.485	0.707	-4.544	-0.000	0.000
3827	3826	3815	3816	3	0.527	-6.397	-1.695	7.565	-0.000	0.000
3827	3826	3825	3819	3	1.715	2.845	1.046	-5.607	-0.000	0.000
3803	3786	3787	3788	3	1.789	3.492	0.536	-5.816	-0.000	0.000
3790	3789	3788	3787	3	1.715	2.845	1.046	-5.607	-0.000	0.000
3833	3826	3827	3828	3	0.000	0.000	0.000	-0.000	-0.000	0.000
3833	3826	3827	3832	3	0.000	0.000	0.000	-0.000	-0.000	0.000
3833	3826	3815	3814	3	6.322	-2.485	0.707	-4.544	-0.000	0.000
3833	3826	3815	3816	3	0.527	-6.397	-1.695	7.565	-0.000	0.000
3833	3826	3825	3819	3	1.715	2.845	1.046	-5.607	-0.000	0.000
3815	3814	3813	3812	3	21.738	2.408	-16.966	-7.180	-0.000	0.000
3820	3819	3816	3815	3	21.738	2.408	-16.966	-7.180	-0.000	0.000
3820	3819	3816	3817	3	-0.778	-2.335	0.000	3.113	-0.000	0.000
3841	3809	3808	3807	3	58.576	0.000	-58.576	-0.000	-0.000	0.000
3837	3811	3810	3809	3	58.576	0.000	-58.576	-0.000	-0.000	0.000
3841	3809	3810	3811	3	58.576	0.000	-58.576	-0.000	-0.000	0.000
3837	3811	3812	3813	3	58.576	0.000	-58.576	-0.000	-0.000	0.000
3826	3815	3814	3813	3	-0.778	-2.335	0.000	3.113	-0.000	0.000
3826	3815	3816	3819	3	58.576	0.000	-58.576	-0.000	-0.000	0.000
3826	3815	3816	3817	3	58.576	0.000	-58.576	-0.000	-0.000	0.000
3838	3841	3809	3808	3	0.527	-6.397	-1.695	7.565	-0.000	0.000
3838	3837	3811	3812	3	0.527	-6.397	-1.695	7.565	-0.000	0.000
3838	3837	3811	3810	3	0.527	-6.397	-1.695	7.565	-0.000	0.000
3838	3841	3809	3810	3	0.527	-6.397	-1.695	7.565	-0.000	0.000
3841	3838	3837	3811	3	2.301	-1.464	0.837	-1.674	-0.000	0.000
3840	3838	3841	3809	3	2.301	-1.464	0.837	-1.674	-0.000	0.000
3837	3838	3841	3809	3	2.301	-1.464	0.837	-1.674	-0.000	0.000
3839	3838	3841	3809	3	2.301	-1.464	0.837	-1.674	-0.000	0.000
3840	3838	3837	3811	3	2.301	-1.464	0.837	-1.674	-0.000	0.000
3839	3838	3837	3811	3	2.301	-1.464	0.837	-1.674	-0.000	0.000
3788	3787	3786	3785	3	1.789	3.492	0.536	-5.816	-0.000	0.000
3826	3825	3819	3816	3	30.334	0.000	-30.334	-0.000	-0.000	0.000
3826	3825	3819	3820	3	30.334	0.000	-30.334	-0.000	-0.000	0.000
3819	3816	3815	3814	3	58.576	0.000	-58.576	-0.000	-0.000	0.000
3819	3825	3826	3815	3	1.715	2.845	1.046	-5.607	-0.000	0.000
3817	3816	3815	3814	3	58.576	0.000	-58.576	-0.000	-0.000	0.000
3821	3820	3819	3816	3	58.576	0.000	-58.576	-0.000	-0.000	0.000
3823	3820	3819	3816	3	58.576	0.000	-58.576	-0.000	-0.000	0.000
3834	3833	3826	3827	3	0.000	0.000	0.000	-0.000	-0.000	0.000
3835	3833	3826	3827	3	0.000	0.000	0.000	-0.000	-0.000	0.000
3836	3833	3826	3827	3	0.000	0.000	0.000	-0.000	-0.000	0.000
3835	3833	3826	3815	3	0.000	0.000	0.000	-0.000	-0.000	0.000
3834	3833	3826	3815	3	0.000	0.000	0.000	-0.000	-0.000	0.000
3836	3833	3826	3815	3	0.000	0.000	0.000	-0.000	-0.000	0.000
3835	3833	3826	3825	3	1.130	3.389	0.000	-4.519	-0.000	0.000
3836	3833	3826	3825	3	1.130	3.389	0.000	-4.519	-0.000	0.000
3834	3833	3826	3825	3	1.130	3.389	0.000	-4.519	-0.000	0.000
3864	3810	3809	3808	3	58.576	0.000	-58.576	-0.000	-0.000	0.000
3864	3810	3811	3812	3	58.576	0.000	-58.576	-0.000	-0.000	0.000
3864	3810	3811	3837	3	58.576	0.000	-58.576	-0.000	-0.000	0.000
3864	3810	3809	3841	3	58.576	0.000	-58.576	-0.000	-0.000	0.000
3853	3795	3794	3793	3	30.334	0.000	-30.334	-0.000	-0.000	0.000
3852	3792	3793	3794	3	30.334	0.000	-30.334	-0.000	-0.000	0.000
3858	3801	3793	3794	3	30.334	0.000	-30.334	-0.000	-0.000	0.000
3857	3800	3794	3793	3	30.334	0.000	-30.334	-0.000	-0.000	0.000
3857	3800	3794	3795	3	30.334	0.000	-30.334	-0.000	-0.000	0.000
3853	3795	3794	3800	3	30.334	0.000	-30.334	-0.000	-0.000	0.000
3852	3792	3793	3801	3	30.334	0.000	-30.334	-0.000	-0.000	0.000
3858	3801	3793	3792	3	30.334	0.000	-30.334	-0.000	-0.000	0.000
3851	3791	3792	3793	3	30.334	0.000	-30.334	-0.000	-0.000	0.000
3859	3802	3801	3793	3	30.334	0.000	-30.334	-0.000	-0.000	0.000
3854	3796	3795	3794	3	30.334	0.000	-30.334	-0.000	-0.000	0.000
3856	3799	3800	3794	3	30.334	0.000	-30.334	-0.000	-0.000	0.000
3861	3805	3806	3807	3	30.334	0.000	-30.334	-0.000	-0.000	0.000
3883	3842	3806	3807	3	30.334	0.000	-30.334	-0.000	-0.000	0.000
3868	3828	3829	3830	3	30.334	0.000	-30.334	-0.000	-0.000	0.000
3856	3799	3797	3796	3	30.334	0.000	-30.334	-0.000	-0.000	0.000
3871	3831	3830	3829	3	30.334	0.000	-30.334	-0.000	-0.000	0.000
3883	3842	3843	3803	3	30.334	0.000	-30.334	-0.000	-0.000	0.000
3869	3829	3828	3827	3	30.334	0.000	-30.334	-0.000	-0.000	0.000
3884	3843	3842	3806	3	30.334	0.000	-30.334	-0.000	-0.000	0.000
3870	3830	3829	3828	3	30.334	0.000	-30.334	-0.000	-0.000	0.000
3859	3802	3790	3791	3	30.334	0.000	-30.334	-0.000	-0.000	0.000
3858	3801	3802	3790	3	30.334	0.000	-30.334	-0.000	-0.000	0.000
3883	3842	3806	3805	3	30.334	0.000	-30.334	-0.000	-0.000	0.000
3884	3843	3803	3804	3	30.334	0.000	-30.334	-0.000	-0.000	0.000
3871	3831	3832	3827	3	30.334	0.000	-30.334	-0.000	-0.000	0.000
3868	3828	3827	3832	3	30.334	0.000	-30.334	-0.000	-0.000	0.000
3853	3795	3796	3797	3	30.334	0.000	-30.334	-0.000	-0.000	0.000
3854	3796	3797	3799	3	30.334	0.000	-30.334	-0.000	-0.000	0.000
3851	3791	3790	3802	3	30.334	0.000	-30.334	-0.000	-0.000	0.000
3860	3804	3803	3843	3	30.334	0.000	-30.334	-0.000	-0.000	0.000
3860	3804	3805	3806	3	30.334	0.000	-30.334	-0.000	-0.000	0.000
3857	3800	3799	3797	3	30.334	0.000	-30.334	-0.000	-0.000	0.000
3861	3805	3806	3842	3	30.334	0.000	-30.334	-0.000	-0.000	0.000
3870	3830	3831	3832	3	30.334	0.000	-30.334	-0.000	-0.000	0.000
3872	3832	3831	3830	3	30.334	0.000	-30.334	-0.000	-0.000	0.000
3869	3829	3830	3831	3	30.334	0.000	-30.334	-0.000	-0.000	0.000
3872	3832	3827	3828	3	30.334	0.000	-30.334	-0.000	-0.000	0.000
3852	3792	3791	3790	3	30.334	0.000	-30.334	-0.000	-0.000	0.000
3861	3805	3804	3803	3	30.334	0.000	-30.334	-0.000	-0.000	0.000
3872	3832	3827	3826	3	30.334	0.000	-30.334	-0.000	-0.000	0.000
3868	3828	3827	3826	3	30.334	0.000	-30.334	-0.000	-0.000	0.000
3861	3805	3804	3860	3	30.334	0.000	-30.334	-0.000	-0.000	0.000
3884	3843	3842	3883	3	30.334	0.000	-30.334	-0.000	-0.000	0.000
3870	3830	3829	3869	3	30.334	0.000	-30.334	-0.000	-0.000	0.000
3854	3796	3795	3853	3	30.334	0.000	-30.334	-0.000	-0.000	0.000
3859	3802	3801	3858	3	30.334	0.000	-30.334	-0.000	-0.000	0.000
3857	3800	3799	3856	3	30.334	0.000	-30.334	-0.000	-0.000	0.000
3869	3829	3828	3868	3	30.334	0.000	-30.334	-0.000	-0.000	0.000
3852	3792	3791	3851	3	30.334	0.000	-30.334	-0.000	-0.000	0.000
3871	3831	3830	3870	3	30.334	0.000	-30.334	-0.000	-0.000	0.000
3872	3832	3831	3871	3	30.334	0.000	-30.334	-0.000	-0.000	0.000
3884	3843	3803	3786	3	30.334	0.000	-30.334	-0.000	-0.000	0.000
3860	3804	3803	3786	3	30.334	0.000	-30.334	-0.000	-0.000	0.000
3854	3796	3797	3798	3	0.0	0.0	0.0	-0.0	-0.0	0.0
3856	3799	3797	3798	3	0.0	0.0	0.0	-0.0	-0.0	0.0
3851	3791	3790	3789	3	30.334	0.000	-30.334	-0.000	-0.000	0.000
3859	3802	3790	3789	3	30.334	0.000	-30.334	-0.000	-0.000	0.000
3865	3812	3811	3810	3	58.576	0.000	-58.576	-0.000	-0.000	0.000
3865	3812	3813	3814	3	58.576	0.000	-58.576	-0.000	-0.000	0.000
3867	3814	3813	3812	3	58.576	0.000	-58.576	-0.000	-0.000	0.000
3866	3813	3812	3811	3	58.576	0.000	-58.576	-0.000	-0.000	0.000
3863	3808	3809	3810	3	58.576	0.000	-58.576	-0.000	-0.000	0.000
3862	3807	3808	3809	3	58.576	0.000	-58.576	-0.000	-0.000	0.000
3863	3808	3807	3806	3	58.576	0.000	-58.576	-0.000	-0.000	0.000
3866	3813	3814	3815	3	58.576	0.000	-58.576	-0.000	-0.000	0.000
3865	3812	3811	3837	3	58.576	0.000	-58.576	-0.000	-0.000	0.000
3863	3808	3809	3841	3	58.576	0.000	-58.576	-0.000	-0.000	0.000
3863	3808	3807	3862	3	58.576	0.000	-58.576	-0.000	-0.000	0.000
3866	3813	3812	3865	3	58.576	0.000	-58.576	-0.000	-0.000	0.000
3867	3814	3813	3866	3	58.576	0.000	-58.576	-0.000	-0.000	0.000
3862	3807	3806	3842	3	-0.778	-2.335	0.000	3.113	-0.000	0.000
3862	3807	3806	3805	3	-0.778	-2.335	0.000	3.113	-0.000	0.000
3867	3814	3815	3816	3	58.576	0.000	-58.576	-0.000	-0.000	0.000
3867	3814	3815	3826	3	58.576	0.000	-58.576	-0.000	-0.000	0.000
3881	3841	3809	3808	3	-0.778	-2.335	0.000	3.113	-0.000	0.000
3881	3841	3809	3810	3	-0.778	-2.335	0.000	3.113	-0.000	0.000
3882	3841	3809	3808	3	-0.778	-2.335	0.000	3.113	-0.000	0.000
3874	3837	3811	3812	3	-0.778	-2.335	0.000	3.113	-0.000	0.000
3882	3841	3809	3810	3	-0.778	-2.335	0.000	3.113	-0.000	0.000
3873	3837	3811	3810	3	-0.778	-2.335	0.000	3.113	-0.000	0.000
3874	3837	3811	3810	3	-0.778	-2.335	0.000	3.113	-0.000	0.000
3873	3837	3811	3812	3	-0.778	-2.335	0.000	3.113	-0.000	0.000
3876	3839	3838	3841	3	0.628	1.883	0.000	-2.510	-0.000	0.000
3875	3839	3838	3840	3	0.628	1.883	0.000	-2.510	-0.000	0.000
3875	3839	3838	3837	3	0.628	1.883	0.000	-2.510	-0.000	0.000
3877	3839	3838	3840	3	0.628	1.883	0.000	-2.510	-0.000	0.000
3879	3840	3838	3837	3	0.628	1.883	0.000	-2.510	-0.000	0.000
3878	3840	3838	3837	3	0.628	1.883	0.000	-2.510	-0.000	0.000
3877	3839	3838	3837	3	0.628	1.883	0.000	-2.510	-0.000	0.000
3879	3840	3838	3839	3	0.628	1.883	0.000	-2.510	-0.000	0.000
3876	3839	3838	3837	3	0.628	1.883	0.000	-2.510	-0.000	0.000
3881	3841	3838	3837	3	0.628	1.883	0.000	-2.510	-0.000	0.000
3881	3841	3838	3839	3	0.628	1.883	0.000	-2.510	-0.000	0.000
3874	3837	3838	3839	3	0.628	1.883	0.000	-2.510	-0.000	0.000
3877	3839	3838	3841	3	0.628	1.883	0.000	-2.510	-0.000	0.000
3874	3837	3838	3840	3	0.628	1.883	0.000	-2.510	-0.000	0.000
3882	3841	3838	3839	3	0.628	1.883	0.000	-2.510	-0.000	0.000
3878	3840	3838	3841	3	0.628	1.883	0.000	-2.510	-0.000	0.000
3879	3840	3838	3841	3	0.628	1.883	0.000	-2.510	-0.000	0.000
3880	3840	3838	3837	3	0.628	1.883	0.000	-2.510	-0.000	0.000
3873	3837	3838	3840	3	0.628	1.883	0.000	-2.510	-0.000	0.000
3873	3837	3838	3839	3	0.628	1.883	0.000	-2.510	-0.000	0.000
3878	3840	3838	3839	3	0.628	1.883	0.000	-2.510	-0.000	0.000
3874	3837	3838	3841	3	0.628	1.883	0.000	-2.510	-0.000	0.000
3882	3841	3838	3840	3	0.628	1.883	0.000	-2.510	-0.000	0.000
3876	3839	3838	3840	3	0.628	1.883	0.000	-2.510	-0.000	0.000
3875	3839	3838	3841	3	0.628	1.883	0.000	-2.510	-0.000	0.000
3882	3841	3838	3837	3	0.628	1.883	0.000	-2.510	-0.000	0.000
3873	3837	3838	3841	3	0.628	1.883	0.000	-2.510	-0.000	0.000
3880	3840	3838	3839	3	0.628	1.883	0.000	-2.510	-0.000	0.000
3881	3841	3838	3840	3	0.628	1.883	0.000	-2.510	-0.000	0.000
3880	3840	3838	3841	3	0.628	1.883	0.000	-2.510	-0.000	0.000
3849	3788	3787	3848	3	0.628	1.883	0.000	-2.510	-0.000	0.000
3850	3788	3787	3847	3	0.628	1.883	0.000	-2.510	-0.000	0.000
3849	3788	3787	3847	3	0.628	1.883	0.000	-2.510	-0.000	0.000
3850	3788	3787	3848	3	0.628	1.883	0.000	-2.510	-0.000	0.000
3850	3788	3787	3786	3	-4.096	5.088	2.966	-3.958	-0.000	0.000
3849	3788	3787	3786	3	-4.096	5.088	2.966	-3.958	-0.000	0.000
3848	3787	3788	3789	3	0.979	2.937	0.000	-3.916	-0.000	0.000
3847	3787	3788	3789	3	0.979	2.937	0.000	-3.916	-0.000	0.000
3848	3787	3786	3803	3	1.172	3.515	0.000	-4.686	-0.000	0.000
3844	3785	3786	3803	3	1.172	3.515	0.000	-4.686	-0.000	0.000
3847	3787	3786	3803	3	1.172	3.515	0.000	-4.686	-0.000	0.000
3845	3785	3786	3803	3	1.172	3.515	0.000	-4.686	-0.000	0.000
3846	3785	3786	3803	3	1.172	3.515	0.000	-4.686	-0.000	0.000
3847	3787	3786	3785	3	1.172	3.515	0.000	-4.686	-0.000	0.000
3845	3785	3786	3787	3	1.172	3.515	0.000	-4.686	-0.000	0.000
3848	3787	3786	3785	3	1.172	3.515	0.000	-4.686	-0.000	0.000
3846	3785	3786	3787	3	1.172	3.515	0.000	-4.686	-0.000	0.000
3844	3785	3786	3787	3	1.172	3.515	0.000	-4.686	-0.000	0.000
3849	3788	3789	3790	3	1.590	4.770	0.000	-6.360	-0.000	0.000
3850	3788	3789	3790	3	1.590	4.770	0.000	-6.360	-0.000	0.000
3855	3798	3797	3799	3	0.0	0.0	0.0	-0.0	-0.0	0.0
3855	3798	3797	3796	3	0.0	0.0	0.0	-0.0	-0.0	0.0
3798	3797	3796	3795	3	0.0	0.0	0.0	-0.0	-0.0	0.0
3825	3826	3815	3814	3	2.874	0.582	2.092	-5.548	-0.000	0.000
3825	3826	3815	3816	3	1.046	-1.046	0.000	-0.000	-0.000	0.000
3789	3788	3787	3786	3	16.736	-16.736	0.000	-0.000	-0.000	0.000
3825	3819	3816	3815	3	1.046	-1.046	0.000	-0.000	-0.000	0.000
3825	3819	3816	3817	3	9.079	0.000	-9.079	-0.000	-0.000	0.000
3894	3893	3892	3891	3	30.334	0.000	-30.334	-0.000	-0.000	0.000
3893	3901	3902	3890	3	30.334	0.000	-30.334	-0.000	-0.000	0.000
3893	3892	3891	3890	3	30.334	0.000	-30.334	-0.000	-0.000	0.000
3914	3913	3912	3911	3	21.738	2.408	-16.966	-7.180	-0.000	0.000
3910	3909	3908	3907	3	21.738	2.408	-16.966	-7.180	-0.000	0.000
3911	3910	3909	3908	3	21.738	2.408	-16.966	-7.180	-0.000	0.000
3912	3911	3910	3909	3	21.738	2.408	-16.966	-7.180	-0.000	0.000
3913	3912	3911	3910	3	21.738	2.408	-16.966	-7.180	-0.000	0.000
3909	3908	3907	3906	3	58.576	0.000	-58.576	-0.000	-0.000	0.000
3908	3907	3906	3905	3	16.027	-4.391	-14.029	2.393	-0.000	0.000
3907	3906	3905	3904	3	30.334	0.000	-30.334	-0.000	-0.000	0.000
3916	3915	3914	3913	3	58.576	0.000	-58.576	-0.000	-0.000	0.000
3901	3893	3894	3900	3	9.079	0.000	-9.079	-0.000	-0.000	0.000
3900	3894	3893	3892	3	9.079	0.000	-9.079	-0.000	-0.000	0.000
3901	3893	3894	3895	3	9.079	0.000	-9.079	-0.000	-0.000	0.000
3895	3894	3893	3892	3	9.079	0.000	-9.079	-0.000	-0.000	0.000
3900	3894	3895	3896	3	30.334	0.000	-30.334	-0.000	-0.000	0.000
3901	3893	3892	3891	3	30.334	0.000	-30.334	-0.000	-0.000	0.000
3899	3900	3894	3893	3	30.334	0.000	-30.334	-0.000	-0.000	0.000
3902	3901	3893	3894	3	30.334	0.000	-30.334	-0.000	-0.000	0.000
3896	3895	3894	3893	3	30.334	0.000	-30.334	-0.000	-0.000	0.000
3899	3900	3894	3895	3	30.334	0.000	-30.334	-0.000	-0.000	0.000
3902	3901	3893	3892	3	30.334	0.000	-30.334	-0.000	-0.000	0.000
3942	3906	3907	3908	3	16.027	-4.391	-14.029	2.393	-0.000	0.000
3897	3899	3900	3894	3	30.334	0.000	-30.334	-0.000	-0.000	0.000
3897	3896	3895	3894	3	30.334	0.000	-30.334	-0.000	-0.000	0.000
3943	3942	3906	3907	3	30.334	0.000	-30.334	-0.000	-0.000	0.000
3932	3927	3928	3929	3	30.334	0.000	-30.334	-0.000	-0.000	0.000
3943	3942	3906	3905	3	30.334	0.000	-30.334	-0.000	-0.000	0.000
3902	3890	3891	3892	3	30.334	0.000	-30.334	-0.000	-0.000	0.000
3942	3943	3903	3904	3	30.334	0.000	-30.334	-0.000	-0.000	0.000
3932	3931	3930	3929	3	30.334	0.000	-30.334	-0.000	-0.000	0.000
3931	3930	3929	3928	3	30.334	0.000	-30.334	-0.000	-0.000	0.000
3930	3929	3928	3927	3	30.334	0.000	-30.334	-0.000	-0.000	0.000
3906	3905	3904	3903	3	30.334	0.000	-30.334	-0.000	-0.000	0.000
3906	3942	3943	3903	3	30.334	0.000	-30.334	-0.000	-0.000	0.000
3943	3903	3904	3905	3	30.334	0.000	-30.334	-0.000	-0.000	0.000
3942	3906	3905	3904	3	30.334	0.000	-30.334	-0.000	-0.000	0.000
3931	3932	3927	3928	3	30.334	0.000	-30.334	-0.000	-0.000	0.000
3900	3899	3897	3896	3	30.334	0.000	-30.334	-0.000	-0.000	0.000
3901	3902	3890	3891	3	30.334	0.000	-30.334	-0.000	-0.000	0.000
3930	3931	3932	3927	3	30.334	0.000	-30.334	-0.000	-0.000	0.000
3899	3897	3896	3895	3	30.334	0.000	-30.334	-0.000	-0.000	0.000
3931	3932	3927	3926	3	30.334	0.000	-30.334	-0.000	-0.000	0.000
3929	3928	3927	3926	3	30.334	0.000	-30.334	-0.000	-0.000	0.000
3942	3943	3903	3886	3	30.334	0.000	-30.334	-0.000	-0.000	0.000
3905	3904	3903	3886	3	30.334	0.000	-30.334	-0.000	-0.000	0.000
3900	3899	3897	3898	3	0.0	0.0	0.0	-0.0	-0.0	0.0
3892	3891	3890	3889	3	30.334	0.000	-30.334	-0.000	-0.000	0.000
3901	3902	3890	3889	3	30.334	0.000	-30.334	-0.000	-0.000	0.000
3932	3927	3926	3915	3	0.000	0.000	0.000	-0.000	-0.000	0.000
3928	3927	3926	3915	3	0.000	0.000	0.000	-0.000	-0.000	0.000
3932	3927	3926	3925	3	0.000	0.000	0.000	-0.000	-0.000	0.000
3928	3927	3926	3925	3	0.000	0.000	0.000	-0.000	-0.000	0.000
3943	3903	3886	3887	3	5.184	35.932	-14.355	-26.761	-0.000	0.000
3904	3903	3886	3887	3	5.184	35.932	-14.355	-26.761	-0.000	0.000
3904	3903	3886	3885	3	5.184	35.932	-14.355	-26.761	-0.000	0.000
3943	3903	3886	3885	3	5.184	35.932	-14.355	-26.761	-0.000	0.000
3891	3890	3889	3888	3	12.552	0.000	-12.552	-0.000	-0.000	0.000
3902	3890	3889	3888	3	12.552	0.000	-12.552	-0.000	-0.000	0.000
3927	3926	3915	3914	3	6.322	-2.485	0.707	-4.544	-0.000	0.000
3927	3926	3915	3916	3	0.527	-6.397	-1.695	7.565	-0.000	0.000
3927	3926	3925	3919	3	1.715	2.845	1.046	-5.607	-0.000	0.000
3903	3886	3887	3888	3	1.789	3.492	0.536	-5.816	-0.000	0.000
3890	3889	3888	3887	3	1.715	2.845	1.046	-5.607	-0.000	0.000
3933	3926	3927	3928	3	0.000	0.000	0.000	-0.000	-0.000	0.000
3933	3926	3927	3932	3	0.000	0.000	0.000	-0.000	-0.000	0.000
3933	3926	3915	3914	3	6.322	-2.485	0.707	-4.544	-0.000	0.000
3933	3926	3915	3916	3	0.527	-6.397	-1.695	7.565	-0.000	0.000
3933	3926	3925	3919	3	1.715	2.845	1.046	-5.607	-0.000	0.000
3915	3914	3913	3912	3	21.738	2.408	-16.966	-7.180	-0.000	0.000
3920	3919	3916	3915	3	21.738	2.408	-16.966	-7.180	-0.000	0.000
3920	3919	3916	3917	3	-0.778	-2.335	0.000	3.113	-0.000	0.000
3941	3909	3908	3907	3	58.576	0.000	-58.576	-0.000	-0.000	0.000
3937	3911	3910	3909	3	58.576	0.000	-58.576	-0.000	-0.000	0.000
3941	3909	3910	3911	3	58.576	0.000	-58.576	-0.000	-0.000	0.000
3937	3911	3912	3913	3	58.576	0.000	-58.576	-0.000	-0.000	0.000
3926	3915	3914	3913	3	-0.778	-2.335	0.000	3.113	-0.000	0.000
3926	3915	3916	3919	3	58.576	0.000	-58.576	-0.000	-0.000	0.000
3926	3915	3916	3917	3	58.576	0.000	-58.576	-0.000	-0.000	0.000
3938	3941	3909	3908	3	0.527	-6.397	-1.695	7.565	-0.000	0.000
3938	3937	3911	3912	3	0.527	-6.397	-1.695	7.565	-0.000	0.000
3938	3937	3911	3910	3	0.527	-6.397	-1.695	7.565	-0.000	0.000
3938	3941	3909	3910	3	0.527	-6.397	-1.695	7.565	-0.000	0.000
3941	3938	3937	3911	3	2.301	-1.464	0.837	-1.674	-0.000	0.000
3940	3938	3941	3909	3	2.301	-1.464	0.837	-1.674	-0.000	0.000
3937	3938	3941	3909	3	2.301	-1.464	0.837	-1.674	-0.000	0.000
3939	3938	3941	3909	3	2.301	-1.464	0.837	-1.674	-0.000	0.000
3940	3938	3937	3911	3	2.301	-1.464	0.837	-1.674	-0.000	0.000
3939	3938	3937	3911	3	2.301	-1.464	0.837	-1.674	-0.000	0.000
3888	3887	3886	3885	3	1.789	3.492	0.536	-5.816	-0.000	0.000
3926	3925	3919	3916	3	30.334	0.000	-30.334	-0.000	-0.000	0.000
3926	3925	3919	3920	3	30.334	0.000	-30.334	-0.000	-0.000	0.000
3919	3916	3915	3914	3	58.576	0.000	-58.576	-0.000	-0.000	0.000
3919	3925	3926	3915	3	1.715	2.845	1.046	-5.607	-0.000	0.000
3917	3916	3915	3914	3	58.576	0.000	-58.576	-0.000	-0.000	0.000
3921	3920	3919	3916	3	58.576	0.000	-58.576	-0.000	-0.000	0.000
3923	3920	3919	3916	3	58.576	0.000	-58.576	-0.000	-0.000	0.000
3934	3933	3926	3927	3	0.000	0.000	0.000	-0.000	-0.000	0.000
3935	3933	3926	3927	3	0.000	0.000	0.000	-0.000	-0.000	0.000
3936	3933	3926	3927	3	0.000	0.000	0.000	-0.000	-0.000	0.000
3935	3933	3926	3915	3	0.000	0.000	0.000	-0.000	-0.000	0.000
3934	3933	3926	3915	3	0.000	0.000	0.000	-0.000	-0.000	0.000
3936	3933	3926	3915	3	0.000	0.000	0.000	-0.000	-0.000	0.000
3935	3933	3926	3925	3	1.130	3.389	0.000	-4.519	-0.000	0.000
3936	3933	3926	3925	3	1.130	3.389	0.000	-4.519	-0.000	0.000
3934	3933	3926	3925	3	1.130	3.389	0.000	-4.519	-0.000	0.000
3964	3910	3909	3908	3	58.576	0.000	-58.576	-0.000	-0.000	0.000
3964	3910	3911	3912	3	58.576	0.000	-58.576	-0.000	-0.000	0.000
3964	3910	3911	3937	3	58.576	0.000	-58.576	-0.000	-0.000	0.000
3964	3910	3909	3941	3	58.576	0.000	-58.576	-0.000	-0.000	0.000
3953	3895	3894	3893	3	30.334	0.000	-30.334	-0.000	-0.000	0.000
3952	3892	3893	3894	3	30.334	0.000	-30.334	-0.000	-0.000	0.000
3958	3901	3893	3894	3	30.334	0.000	-30.334	-0.000	-0.000	0.000
3957	3900	3894	3893	3	30.334	0.000	-30.334	-0.000	-0.000	0.000
3957	3900	3894	3895	3	30.334	0.000	-30.334	-0.000	-0.000	0.000
3953	3895	3894	3900	3	30.334	0.000	-30.334	-0.000	-0.000	0.000
3952	3892	3893	3901	3	30.334	0.000	-30.334	-0.000	-0.000	0.000
3958	3901	3893	3892	3	30.334	0.000	-30.334	-0.000	-0.000	0.000
3951	3891	3892	3893	3	30.334	0.000	-30.334	-0.000	-0.000	0.000
3959	3902	3901	3893	3	30.334	0.000	-30.334	-0.000	-0.000	0.000
3954	3896	3895	3894	3	30.334	0.000	-30.334	-0.000	-0.000	0.000
3956	3899	3900	3894	3	30.334	0.000	-30.334	-0.000	-0.000	0.000
3961	3905	3906	3907	3	30.334	0.000	-30.334	-0.000	-0.000	0.000
3983	3942	3906	3907	3	30.334	0.000	-30.334	-0.000	-0.000	0.000
3968	3928	3929	3930	3	30.334	0.000	-30.334	-0.000	-0.000	0.000
3956	3899	3897	3896	3	30.334	0.000	-30.334	-0.000	-0.000	0.000
3971	3931	3930	3929	3	30.334	0.000	-30.334	-0.000	-0.000	0.000
3983	3942	3943	3903	3	30.334	0.000	-30.334	-0.000	-0.000	0.000
3969	3929	3928	3927	3	30.334	0.000	-30.334	-0.000	-0.000	0.000
3984	3943	3942	3906	3	30.334	0.000	-30.334	-0.000	-0.000	0.000
3970	3930	3929	3928	3	30.334	0.000	-30.334	-0.000	-0.000	0.000
3959	3902	3890	3891	3	30.334	0.000	-30.334	-0.000	-0.000	0.000
3958	3901	3902	3890	3	30.334	0.000	-30.334	-0.000	-0.000	0.000
3983	3942	3906	3905	3	30.334	0.000	-30.334	-0.000	-0.000	0.000
3984	3943	3903	3904	3	30.334	0.000	-30.334	-0.000	-0.000	0.000
3971	3931	3932	3927	3	30.334	0.000	-30.334	-0.000	-0.000	0.000
3968	3928	3927	3932	3	30.334	0.000	-30.334	-0.000	-0.000	0.000
3953	3895	3896	3897	3	30.334	0.000	-30.334	-0.000	-0.000	0.000
3954	3896	3897	3899	3	30.334	0.000	-30.334	-0.000	-0.000	0.000
3951	3891	3890	3902	3	30.334	0.000	-30.334	-0.000	-0.000	0.000
3960	3904	3903	3943	3	30.334	0.000	-30.334	-0.000	-0.000	0.000
3960	3904	3905	3906	3	30.334	0.000	-30.334	-0.000	-0.000	0.000
3957	3900	3899	3897	3	30.334	0.000	-30.334	-0.000	-0.000	0.000
3961	3905	3906	3942	3	30.334	0.000	-30.334	-0.000	-0.000	0.000
3970	3930	3931	3932	3	30.334	0.000	-30.334	-0.000	-0.000	0.000
3972	3932	3931	3930	3	30.334	0.000	-30.334	-0.000	-0.000	0.000
3969	3929	3930	3931	3	30.334	0.000	-30.334	-0.000	-0.000	0.000
3972	3932	3927	3928	3	30.334	0.000	-30.334	-0.000	-0.000	0.000
3952	3892	3891	3890	3	30.334	0.000	-30.334	-0.000	-0.000	0.000
3961	3905	3904	3903	3	30.334	0.000	-30.334	-0.000	-0.000	0.000
3972	3932	3927	3926	3	30.334	0.000	-30.334	-0.000	-0.000	0.000
3968	3928	3927	3926	3	30.334	0.000	-30.334	-0.000	-0.000	0.000
3961	3905	3904	3960	3	30.334	0.000	-30.334	-0.000	-0.000	0.000
3984	3943	3942	3983	3	30.334	0.000	-30.334	-0.000	-0.000	0.000
3970	3930	3929	3969	3	30.334	0.000	-30.334	-0.000	-0.000	0.000
3954	3896	3895	3953	3	30.334	0.000	-30.334	-0.000	-0.000	0.000
3959	3902	3901	3958	3	30.334	0.000	-30.334	-0.000	-0.000	0.000
3957	3900	3899	3956	3	30.334	0.000	-30.334	-0.000	-0.000	0.000
3969	3929	3928	3968	3	30.334	0.000	-30.334	-0.000	-0.000	0.000
3952	3892	3891	3951	3	30.334	0.000	-30.334	-0.000	-0.000	0.000
3971	3931	3930	3970	3	30.334	0.000	-30.334	-0.000	-0.000	0.000
3972	3932	3931	3971	3	30.334	0.000	-30.334	-0.000	-0.000	0.000
3984	3943	3903	3886	3	30.334	0.000	-30.334	-0.000	-0.000	0.000
3960	3904	3903	3886	3	30.334	0.000	-30.334	-0.000	-0.000	0.000
3954	3896	3897	3898	3	0.0	0.0	0.0	-0.0	-0.0	0.0
3956	3899	3897	3898	3	0.0	0.0	0.0	-0.0	-0.0	0.0
3951	3891	3890	3889	3	30.334	0.000	-30.334	-0.000	-0.000	0.000
3959	3902	3890	3889	3	30.334	0.000	-30.334	-0.000	-0.000	0.000
3965	3912	3911	3910	3	58.576	0.000	-58.576	-0.000	-0.000	0.000
3965	3912	3913	3914	3	58.576	0.000	-58.576	-0.000	-0.000	0.000
3967	3914	3913	3912	3	58.576	0.000	-58.576	-0.000	-0.000	0.000
3966	3913	3912	3911	3	58.576	0.000	-58.576	-0.000	-0.000	0.000
3963	3908	3909	3910	3	58.576	0.000	-58.576	-0.000	-0.000	0.000
3962	3907	3908	3909	3	58.576	0.000	-58.576	-0.000	-0.000	0.000
3963	3908	3907	3906	3	58.576	0.000	-58.576	-0.000	-0.000	0.000
3966	3913	3914	3915	3	58.576	0.000	-58.576	-0.000	-0.000	0.000
3965	3912	3911	3937	3	58.576	0.000	-58.576	-0.000	-0.000	0.000
3963	3908	3909	3941	3	58.576	0.000	-58.576	-0.000	-0.000	0.000
3963	3908	3907	3962	3	58.576	0.000	-58.576	-0.000	-0.000	0.000
3966	3913	3912	3965	3	58.576	0.000	-58.576	-0.000	-0.000	0.000
3967	3914	3913	3966	3	58.576	0.000	-58.576	-0.000	-0.000	0.000
3962	3907	3906	3942	3	-0.778	-2.335	0.000	3.113	-0.000	0.000
3962	3907	3906	3905	3	-0.778	-2.335	0.000	3.113	-0.000	0.000
3967	3914	3915	3916	3	58.576	0.000	-58.576	-0.000	-0.000	0.000
3967	3914	3915	3926	3	58.576	0.000	-58.576	-0.000	-0.000	0.000
3981	3941	3909	3908	3	-0.778	-2.335	0.000	3.113	-0.000	0.000
3981	3941	3909	3910	3	-0.778	-2.335	0.000	3.113	-0.000	0.000
3982	3941	3909	3908	3	-0.778	-2.335	0.000	3.113	-0.000	0.000
3974	3937	3911	3912	3	-0.778	-2.335	0.000	3.113	-0.000	0.000
3982	3941	3909	3910	3	-0.778	-2.335	0.000	3.113	-0.000	0.000
3973	3937	3911	3910	3	-0.778	-2.335	0.000	3.113	-0.000	0.000
3974	3937	3911	3910	3	-0.778	-2.335	0.000	3.113	-0.000	0.000
3973	3937	3911	3912	3	-0.778	-2.335	0.000	3.113	-0.000	0.000
3976	3939	3938	3941	3	0.628	1.883	0.000	-2.510	-0.000	0.000
3975	3939	3938	3940	3	0.628	1.883	0.000	-2.510	-0.000	0.000
3975	3939	3938	3937	3	0.628	1.883	0.000	-2.510	-0.000	0.000
3977	3939	3938	3940	3	0.628	1.883	0.000	-2.510	-0.000	0.000
3979	3940	3938	3937	3	0.628	1.883	0.000	-2.510	-0.000	0.000
3978	3940	3938	3937	3	0.628	1.883	0.000	-2.510	-0.000	0.000
3977	3939	3938	3937	3	0.628	1.883	0.000	-2.510	-0.000	0.000
3979	3940	3938	3939	3	0.628	1.883	0.000	-2.510	-0.000	0.000
3976	3939	3938	3937	3	0.628	1.883	0.000	-2.510	-0.000	0.000
3981	3941	3938	3937	3	0.628	1.883	0.000	-2.510	-0.000	0.000
3981	3941	3938	3939	3	0.628	1.883	0.000	-2.510	-0.000	0.000
3974	3937	3938	3939	3	0.628	1.883	0.000	-2.510	-0.000	0.000
3977	3939	3938	3941	3	0.628	1.883	0.000	-2.510	-0.000	0.000
3974	3937	3938	3940	3	0.628	1.883	0.000	-2.510	-0.000	0.000
3982	3941	3938	3939	3	0.628	1.883	0.000	-2.510	-0.000	0.000
3978	3940	3938	3941	3	0.628	1.883	0.000	-2.510	-0.000	0.000
3979	3940	3938	3941	3	0.628	1.883	0.000	-2.510	-0.000	0.000
3980	3940	3938	3937	3	0.628	1.883	0.000	-2.510	-0.000	0.000
3973	3937	3938	3940	3	0.628	1.883	0.000	-2.510	-0.000	0.000
3973	3937	3938	3939	3	0.628	1.883	0.000	-2.510	-0.000	0.000
3978	3940	3938	3939	3	0.628	1.883	0.000	-2.510	-0.000	0.000
3974	3937	3938	3941	3	0.628	1.883	0.000	-2.510	-0.000	0.000
3982	3941	3938	3940	3	0.628	1.883	0.000	-2.510	-0.000	0.000
3976	3939	3938	3940	3	0.628	1.883	0.000	-2.510	-0.000	0.000
3975	3939	3938	3941	3	0.628	1.883	0.000	-2.510	-0.000	0.000
3982	3941	3938	3937	3	0.628	1.883	0.000	-2.510	-0.000	0.000
3973	3937	3938	3941	3	0.628	1.883	0.000	-2.510	-0.000	0.000
3980	3940	3938	3939	3	0.628	1.883	0.000	-2.510	-0.000	0.000
3981	3941	3938	3940	3	0.628	1.883	0.000	-2.510	-0.000	0.000
3980	3940	3938	3941	3	0.628	1.883	0.000	-2.510	-0.000	0.000
3949	3888	3887	3948	3	0.628	1.883	0.000	-2.510	-0.000	0.000
3950	3888	3887	3947	3	0.628	1.883	0.000	-2.510	-0.000	0.000
3949	3888	3887	3947	3	0.628	1.883	0.000	-2.510	-0.000	0.000
3950	3888	3887	3948	3	0.628	1.883	0.000	-2.510	-0.000	0.000
3950	3888	3887	3886	3	-4.096	5.088	2.966	-3.958	-0.000	0.000
3949	3888	3887	3886	3	-4.096	5.088	2.966	-3.958	-0.000	0.000
3948	3887	3888	3889	3	0.979	2.937	0.000	-3.916	-0.000	0.000
3947	3887	3888	3889	3	0.979	2.937	0.000	-3.916	-0.000	0.000
3948	3887	3886	3903	3	1.172	3.515	0.000	-4.686	-0.000	0.000
3944	3885	3886	3903	3	1.172	3.515	0.000	-4.686	-0.000	0.000
3947	3887	3886	3903	3	1.172	3.515	0.000	-4.686	-0.000	0.000
3945	3885	3886	3903	3	1.172	3.515	0.000	-4.686	-0.000	0.000
3946	3885	3886	3903	3	1.172	3.515	0.000	-4.686	-0.000	0.000
3947	3887	3886	3885	3	1.172	3.515	0.000	-4.686	-0.000	0.000
3945	3885	3886	3887	3	1.172	3.515	0.000	-4.686	-0.000	0.000
3948	3887	3886	3885	3	1.172	3.515	0.000	-4.686	-0.000	0.000
3946	3885	3886	3887	3	1.172	3.515	0.000	-4.686	-0.000	0.000
3944	3885	3886	3887	3	1.172	3.515	0.000	-4.686	-0.000	0.000
3949	3888	3889	3890	3	1.590	4.770	0.000	-6.360	-0.000	0.000
3950	3888	3889	3890	3	1.590	4.770	0.000	-6.360	-0.000	0.000
3955	3898	3897	3899	3	0.0	0.0	0.0	-0.0	-0.0	0.0
3955	3898	3897	3896	3	0.0	0.0	0.0	-0.0	-0.0	0.0
3898	3897	3896	3895	3	0.0	0.0	0.0	-0.0	-0.0	0.0
3925	3926	3915	3914	3	2.874	0.582	2.092	-5.548	-0.000	0.000
3925	3926	3915	3916	3	1.046	-1.046	0.000	-0.000	-0.000	0.000
3889	3888	3887	3886	3	16.736	-16.736	0.000	-0.000	-0.000	0.000
3925	3919	3916	3915	3	1.046	-1.046	0.000	-0.000	-0.000	0.000
3925	3919	3916	3917	3	9.079	0.000	-9.079	-0.000	-0.000	0.000
3994	3993	3992	3991	3	30.334	0.000	-30.334	-0.000	-0.000	0.000
3993	4001	4002	3990	3	30.334	0.000	-30.334	-0.000	-0.000	0.000
3993	3992	3991	3990	3	30.334	0.000	-30.334	-0.000	-0.000	0.000
4014	4013	4012	4011	3	21.738	2.408	-16.966	-7.180	-0.000	0.000
4010	4009	4008	4007	3	21.738	2.408	-16.966	-7.180	-0.000	0.000
4011	4010	4009	4008	3	21.738	2.408	-16.966	-7.180	-0.000	0.000
4012	4011	4010	4009	3	21.738	2.408	-16.966	-7.180	-0.000	0.000
4013	4012	4011	4010	3	21.738	2.408	-16.966	-7.180	-0.000	0.000
4009	4008	4007	4006	3	58.576	0.000	-58.576	-0.000	-0.000	0.000
4008	4007	4006	4005	3	16.027	-4.391	-14.029	2.393	-0.000	0.000
4007	4006	4005	4004	3	30.334	0.000	-30.334	-0.000	-0.000	0.000
4016	4015	4014	4013	3	58.576	0.000	-58.576	-0.000	-0.000	0.000
4001	3993	3994	4000	3	9.079	0.000	-9.079	-0.000	-0.000	0.000
4000	3994	3993	3992	3	9.079	0.000	-9.079	-0.000	-0.000	0.000
4001	3993	3994	3995	3	9.079	0.000	-9.079	-0.000	-0.000	0.000
3995	3994	3993	3992	3	9.079	0.000	-9.079	-0.000	-0.000	0.000
4000	3994	3995	3996	3	30.334	0.000	-30.334	-0.000	-0.000	0.000
4001	3993	3992	3991	3	30.334	0.000	-30.334	-0.000	-0.000	0.000
3999	4000	3994	3993	3	30.334	0.000	-30.334	-0.000	-0.000	0.000
4002	4001	3993	3994	3	30.334	0.000	-30.334	-0.000	-0.000	0.000
3996	3995	3994	3993	3	30.334	0.000	-30.334	-0.000	-0.000	0.000
3999	4000	3994	3995	3	30.334	0.000	-30.334	-0.000	-0.000	0.000
4002	4001	3993	3992	3	30.334	0.000	-30.334	-0.000	-0.000	0.000
4042	4006	4007	4008	3	16.027	-4.391	-14.029	2.393	-0.000	0.000
3997	3999	4000	3994	3	30.334	0.000	-30.334	-0.000	-0.000	0.000
3997	3996	3995	3994	3	30.334	0.000	-30.334	-0.000	-0.000	0.000
4043	4042	4006	4007	3	30.334	0.000	-30.334	-0.000	-0.000	0.000
4032	4027	4028	4029	3	30.334	0.000	-30.334	-0.000	-0.000	0.000
4043	4042	4006	4005	3	30.334	0.000	-30.334	-0.000	-0.000	0.000
4002	3990	3991	3992	3	30.334	0.000	-30.334	-0.000	-0.000	0.000
4042	4043	4003	4004	3	30.334	0.000	-30.334	-0.000	-0.000	0.000
4032	4031	4030	4029	3	30.334	0.000	-30.334	-0.000	-0.000	0.000
4031	4030	4029	4028	3	30.334	0.000	-30.334	-0.000	-0.000	0.000
4030	4029	4028	4027	3	30.334	0.000	-30.334	-0.000	-0.000	0.000
4006	4005	4004	4003	3	30.334	0.000	-30.334	-0.000	-0.000	0.000
4006	4042	4043	4003	3	30.334	0.000	-30.334	-0.000	-0.000	0.000
4043	4003	4004	4005	3	30.334	0.000	-30.334	-0.000	-0.000	0.000
4042	4006	4005	4004	3	30.334	0.000	-30.334	-0.000	-0.000	0.000
4031	4032	4027	4028	3	30.334	0.000	-30.334	-0.000	-0.000	0.000
4000	3999	3997	3996	3	30.334	0.000	-30.334	-0.000	-0.000	0.000
4001	4002	3990	3991	3	30.334	0.000	-30.334	-0.000	-0.000	0.000
4030	4031	4032	4027	3	30.334	0.000	-30.334	-0.000	-0.000	0.000
3999	3997	3996	3995	3	30.334	0.000	-30.334	-0.000	-0.000	0.000
4031	4032	4027	4026	3	30.334	0.000	-30.334	-0.000	-0.000	0.000
4029	4028	4027	4026	3	30.334	0.000	-30.334	-0.000	-0.000	0.000
4042	4043	4003	3986	3	30.334	0.000	-30.334	-0.000	-0.000	0.000
4005	4004	4003	3986	3	30.334	0.000	-30.334	-0.000	-0.000	0.000
4000	3999	3997	3998	3	0.0	0.0	0.0	-0.0	-0.0	0.0
3992	3991	3990	3989	3	30.334	0.000	-30.334	-0.000	-0.000	0.000
4001	4002	3990	3989	3	30.334	0.000	-30.334	-0.000	-0.000	0.000
4032	4027	4026	4015	3	0.000	0.000	0.000	-0.000	-0.000	0.000
4028	4027	4026	4015	3	0.000	0.000	0.000	-0.000	-0.000	0.000
4032	4027	4026	4025	3	0.000	0.000	0.000	-0.000	-0.000	0.000
4028	4027	4026	4025	3	0.000	0.000	0.000	-0.000	-0.000	0.000
4043	4003	3986	3987	3	5.184	35.932	-14.355	-26.761	-0.000	0.000
4004	4003	3986	3987	3	5.184	35.932	-14.355	-26.761	-0.000	0.000
4004	4003	3986	3985	3	5.184	35.932	-14.355	-26.761	-0.000	0.000
4043	4003	3986	3985	3	5.184	35.932	-14.355	-26.761	-0.000	0.000
3991	3990	3989	3988	3	12.552	0.000	-12.552	-0.000	-0.000	0.000
4002	3990	3989	3988	3	12.552	0.000	-12.552	-0.000	-0.000	0.000
4027	4026	4015	4014	3	6.322	-2.485	0.707	-4.544	-0.000	0.000
4027	4026	4015	4016	3	0.527	-6.397	-1.695	7.565	-0.000	0.000
4027	4026	4025	4019	3	1.715	2.845	1.046	-5.607	-0.000	0.000
4003	3986	3987	3988	3	1.789	3.492	0.536	-5.816	-0.000	0.000
3990	3989	3988	3987	3	1.715	2.845	1.046	-5.607	-0.000	0.000
4033	4026	4027	4028	3	0.000	0.000	0.000	-0.000	-0.000	0.000
4033	4026	4027	4032	3	0.000	0.000	0.000	-0.000	-0.000	0.000
4033	4026	4015	4014	3	6.322	-2.485	0.707	-4.544	-0.000	0.000
4033	4026	4015	4016	3	0.527	-6.397	-1.695	7.565	-0.000	0.000
4033	4026	4025	4019	3	1.715	2.845	1.046	-5.607	-0.000	0.000
4015	4014	4013	4012	3	21.738	2.408	-16.966	-7.180	-0.000	0.000
4020	4019	4016	4015	3	21.738	2.408	-16.966	-7.180	-0.000	0.000
4020	4019	4016	4017	3	-0.778	-2.335	0.000	3.113	-0.000	0.000
4041	4009	4008	4007	3	58.576	0.000	-58.576	-0.000	-0.000	0.000
4037	4011	4010	4009	3	58.576	0.000	-58.576	-0.000	-0.000	0.000
4041	4009	4010	4011	3	58.576	0.000	-58.576	-0.000	-0.000	0.000
4037	4011	4012	4013	3	58.576	0.000	-58.576	-0.000	-0.000	0.000
4026	4015	4014	4013	3	-0.778	-2.335	0.000	3.113	-0.000	0.000
4026	4015	4016	4019	3	58.576	0.000	-58.576	-0.000	-0.000	0.000
4026	4015	4016	4017	3	58.576	0.000	-58.576	-0.000	-0.000	0.000
4038	4041	4009	4008	3	0.527	-6.397	-1.695	7.565	-0.000	0.000
4038	4037	4011	4012	3	0.527	-6.397	-1.695	7.565	-0.000	0.000
4038	4037	4011	4010	3	0.527	-6.397	-1.695	7.565	-0.000	0.000
4038	4041	4009	4010	3	0.527	-6.397	-1.695	7.565	-0.000	0.000
4041	4038	4037	4011	3	2.301	-1.464	0.837	-1.674	-0.000	0.000
4040	4038	4041	4009	3	2.301	-1.464	0.837	-1.674	-0.000	0.000
4037	4038	4041	4009	3	2.301	-1.464	0.837	-1.674	-0.000	0.000
4039	4038	4041	4009	3	2.301	-1.464	0.837	-1.674	-0.000	0.000
4040	4038	4037	4011	3	2.301	-1.464	0.837	-1.674	-0.000	0.000
4039	4038	4037	4011	3	2.301	-1.464	0.837	-1.674	-0.000	0.000
3988	3987	3986	3985	3	1.789	3.492	0.536	-5.816	-0.000	0.000
4026	4025	4019	4016	3	30.334	0.000	-30.334	-0.000	-0.000	0.000
4026	4025	4019	4020	3	30.334	0.000	-30.334	-0.000	-0.000	0.000
4019	4016	4015	4014	3	58.576	0.000	-58.576	-0.000	-0.000	0.000
4019	4025	4026	4015	3	1.715	2.845	1.046	-5.607	-0.000	0.000
4017	4016	4015	4014	3	58.576	0.000	-58.576	-0.000	-0.000	0.000
4021	4020	4019	4016	3	58.576	0.000	-58.576	-0.000	-0.000	0.000
4023	4020	4019	4016	3	58.576	0.000	-58.576	-0.000	-0.000	0.000
4034	4033	4026	4027	3	0.000	0.000	0.000	-0.000	-0.000	0.000
4035	4033	4026	4027	3	0.000	0.000	0.000	-0.000	-0.000	0.000
4036	4033	4026	4027	3	0.000	0.000	0.000	-0.000	-0.000	0.000
4035	4033	4026	4015	3	0.000	0.000	0.000	-0.000	-0.000	0.000
4034	4033	4026	4015	3	0.000	0.000	0.000	-0.000	-0.000	0.000
4036	4033	4026	4015	3	0.000	0.000	0.000	-0.000	-0.000	0.000
4035	4033	4026	4025	3	1.130	3.389	0.000	-4.519	-0.000	0.000
4036	4033	4026	4025	3	1.130	3.389	0.000	-4.519	-0.000	0.000
4034	4033	4026	4025	3	1.130	3.389	0.000	-4.519	-0.000	0.000
4064	4010	4009	4008	3	58.576	0.000	-58.576	-0.000	-0.000	0.000
4064	4010	4011	4012	3	58.576	0.000	-58.576	-0.000	-0.000	0.000
4064	4010	4011	4037	3	58.576	0.000	-58.576	-0.000	-0.000	0.000
4064	4010	4009	4041	3	58.576	0.000	-58.576	-0.000	-0.000	0.000
4053	3995	3994	3993	3	30.334	0.000	-30.334	-0.000	-0.000	0.000
4052	3992	3993	3994	3	30.334	0.000	-30.334	-0.000	-0.000	0.000
4058	4001	3993	3994	3	30.334	0.000	-30.334	-0.000	-0.000	0.000
4057	4000	3994	3993	3	30.334	0.000	-30.334	-0.000	-0.000	0.000
4057	4000	3994	3995	3	30.334	0.000	-30.334	-0.000	-0.000	0.000
4053	3995	3994	4000	3	30.334	0.000	-30.334	-0.000	-0.000	0.000
4052	3992	3993	4001	3	30.334	0.000	-30.334	-0.000	-0.000	0.000
4058	4001	3993	3992	3	30.334	0.000	-30.334	-0.000	-0.000	0.000
4051	3991	3992	3993	3	30.334	0.000	-30.334	-0.000	-0.000	0.000
4059	4002	4001	3993	3	30.334	0.000	-30.334	-0.000	-0.000	0.000
4054	3996	3995	3994	3	30.334	0.000	-30.334	-0.000	-0.000	0.000
4056	3999	4000	3994	3	30.334	0.000	-30.334	-0.000	-0.000	0.000
4061	4005	4006	4007	3	30.334	0.000	-30.334	-0.000	-0.000	0.000
4083	4042	4006	4007	3	30.334	0.000	-30.334	-0.000	-0.000	0.000
4068	4028	4029	4030	3	30.334	0.000	-30.334	-0.000	-0.000	0.000
4056	3999	3997	3996	3	30.334	0.000	-30.334	-0.000	-0.000	0.000
4071	4031	4030	4029	3	30.334	0.000	-30.334	-0.000	-0.000	0.000
4083	4042	4043	4003	3	30.334	0.000	-30.334	-0.000	-0.000	0.000
4069	4029	4028	4027	3	30.334	0.000	-30.334	-0.000	-0.000	0.000
4084	4043	4042	4006	3	30.334	0.000	-30.334	-0.000	-0.000	0.000
4070	4030	4029	4028	3	30.334	0.000	-30.334	-0.000	-0.000	0.000
4059	4002	3990	3991	3	30.334	0.000	-30.334	-0.000	-0.000	0.000
4058	4001	4002	3990	3	30.334	0.000	-30.334	-0.000	-0.000	0.000
4083	4042	4006	4005	3	30.334	0.000	-30.334	-0.000	-0.000	0.000
4084	4043	4003	4004	3	30.334	0.000	-30.334	-0.000	-0.000	0.000
4071	4031	4032	4027	3	30.334	0.000	-30.334	-0.000	-0.000	0.000
4068	4028	4027	4032	3	30.334	0.000	-30.334	-0.000	-0.000	0.000
4053	3995	3996	3997	3	30.334	0.000	-30.334	-0.000	-0.000	0.000
4054	3996	3997	3999	3	30.334	0.000	-30.334	-0.000	-0.000	0.000
4051	3991	3990	4002	3	30.334	0.000	-30.334	-0.000	-0.000	0.000
4060	4004	4003	4043	3	30.334	0.000	-30.334	-0.000	-0.000	0.000
4060	4004	4005	4006	3	30.334	0.000	-30.334	-0.000	-0.000	0.000
4057	4000	3999	3997	3	30.334	0.000	-30.334	-0.000	-0.000	0.000
4061	4005	4006	4042	3	30.334	0.000	-30.334	-0.000	-0.000	0.000
4070	4030	4031	4032	3	30.334	0.000	-30.334	-0.000	-0.000	0.000
4072	4032	4031	4030	3	30.334	0.000	-30.334	-0.000	-0.000	0.000
4069	4029	4030	4031	3	30.334	0.000	-30.334	-0.000	-0.000	0.000
4072	4032	4027	4028	3	30.334	0.000	-30.334	-0.000	-0.000	0.000
4052	3992	3991	3990	3	30.334	0.000	-30.334	-0.000	-0.000	0.000
4061	4005	4004	4003	3	30.334	0.000	-30.334	-0.000	-0.000	0.000
4072	4032	4027	4026	3	30.334	0.000	-30.334	-0.000	-0.000	0.000
4068	4028	4027	4026	3	30.334	0.000	-30.334	-0.000	-0.000	0.000
4061	4005	4004	4060	3	30.334	0.000	-30.334	-0.000	-0.000	0.000
4084	4043	4042	4083	3	30.334	0.000	-30.334	-0.000	-0.000	0.000
4070	4030	4029	4069	3	30.334	0.000	-30.334	-0.000	-0.000	0.000
4054	3996	3995	4053	3	30.334	0.000	-30.334	-0.000	-0.000	0.000
4059	4002	4001	4058	3	30.334	0.000	-30.334	-0.000	-0.000	0.000
4057	4000	3999	4056	3	30.334	0.000	-30.334	-0.000	-0.000	0.000
4069	4029	4028	4068	3	30.334	0.000	-30.334	-0.000	-0.000	0.000
4052	3992	3991	4051	3	30.334	0.000	-30.334	-0.000	-0.000	0.000
4071	4031	4030	4070	3	30.334	0.000	-30.334	-0.000	-0.000	0.000
4072	4032	4031	4071	3	30.334	0.000	-30.334	-0.000	-0.000	0.000
4084	4043	4003	3986	3	30.334	0.000	-30.334	-0.000	-0.000	0.000
4060	4004	4003	3986	3	30.334	0.000	-30.334	-0.000	-0.000	0.000
4054	3996	3997	3998	3	0.0	0.0	0.0	-0.0	-0.0	0.0
4056	3999	3997	3998	3	0.0	0.0	0.0	-0.0	-0.0	0.0
4051	3991	3990	3989	3	30.334	0.000	-30.334	-0.000	-0.000	0.000
4059	4002	3990	3989	3	30.334	0.000	-30.334	-0.000	-0.000	0.000
4065	4012	4011	4010	3	58.576	0.000	-58.576	-0.000	-0.000	0.000
4065	4012	4013	4014	3	58.576	0.000	-58.576	-0.000	-0.000	0.000
4067	4014	4013	4012	3	58.576	0.000	-58.576	-0.000	-0.000	0.000
4066	4013	4012	4011	3	58.576	0.000	-58.576	-0.000	-0.000	0.000
4063	4008	4009	4010	3	58.576	0.000	-58.576	-0.000	-0.000	0.000
4062	4007	4008	4009	3	58.576	0.000	-58.576	-0.000	-0.000	0.000
4063	4008	4007	4006	3	58.576	0.000	-58.576	-0.000	-0.000	0.000
4066	4013	4014	4015	3	58.576	0.000	-58.576	-0.000	-0.000	0.000
4065	4012	4011	4037	3	58.576	0.000	-58.576	-0.000	-0.000	0.000
4063	4008	4009	4041	3	58.576	0.000	-58.576	-0.000	-0.000	0.000
4063	4008	4007	4062	3	58.576	0.000	-58.576	-0.000	-0.000	0.000
4066	4013	4012	4065	3	58.576	0.000	-58.576	-0.000	-0.000	0.000
4067	4014	4013	4066	3	58.576	0.000	-58.576	-0.000	-0.000	0.000
4062	4007	4006	4042	3	-0.778	-2.335	0.000	3.113	-0.000	0.000
4062	4007	4006	4005	3	-0.778	-2.335	0.000	3.113	-0.000	0.000
4067	4014	4015	4016	3	58.576	0.000	-58.576	-0.000	-0.000	0.000
4067	4014	4015	4026	3	58.576	0.000	-58.576	-0.000	-0.000	0.000
4081	4041	4009	4008	3	-0.778	-2.335	0.000	3.113	-0.000	0.000
4081	4041	4009	4010	3	-0.778	-2.335	0.000	3.113	-0.000	0.000
4082	4041	4009	4008	3	-0.778	-2.335	0.000	3.113	-0.000	0.000
4074	4037	4011	4012	3	-0.778	-2.335	0.000	3.113	-0.000	0.000
4082	4041	4009	4010	3	-0.778	-2.335	0.000	3.113	-0.000	0.000
4073	4037	4011	4010	3	-0.778	-2.335	0.000	3.113	-0.000	0.000
4074	4037	4011	4010	3	-0.778	-2.335	0.000	3.113	-0.000	0.000
4073	4037	4011	4012	3	-0.778	-2.335	0.000	3.113	-0.000	0.000
4076	4039	4038	4041	3	0.628	1.883	0.000	-2.510	-0.000	0.000
4075	4039	4038	4040	3	0.628	1.883	0.000	-2.510	-0.000	0.000
4075	4039	4038	4037	3	0.628	1.883	0.000	-2.510	-0.000	0.000
4077	4039	4038	4040	3	0.628	1.883	0.000	-2.510	-0.000	0.000
4079	4040	4038	4037	3	0.628	1.883	0.000	-2.510	-0.000	0.000
4078	4040	4038	4037	3	0.628	1.883	0.000	-2.510	-0.000	0.000
4077	4039	4038	4037	3	0.628	1.883	0.000	-2.510	-0.000	0.000
4079	4040	4038	4039	3	0.628	1.883	0.000	-2.510	-0.000	0.000
4076	4039	4038	4037	3	0.628	1.883	0.000	-2.510	-0.000	0.000
4081	4041	4038	4037	3	0.628	1.883	0.000	-2.510	-0.000	0.000
4081	4041	4038	4039	3	0.628	1.883	0.000	-2.510	-0.000	0.000
4074	4037	4038	4039	3	0.628	1.883	0.000	-2.510	-0.000	0.000
4077	4039	4038	4041	3	0.628	1.883	0.000	-2.510	-0.000	0.000
4074	4037	4038	4040	3	0.628	1.883	0.000	-2.510	-0.000	0.000
4082	4041	4038	4039	3	0.628	1.883	0.000	-2.510	-0.000	0.000
4078	4040	4038	4041	3	0.628	1.883	0.000	-2.510	-0.000	0.000
4079	4040	4038	4041	3	0.628	1.883	0.000	-2.510	-0.000	0.000
4080	4040	4038	4037	3	0.628	1.883	0.000	-2.510	-0.000	0.000
4073	4037	4038	4040	3	0.628	1.883	0.000	-2.510	-0.000	0.000
4073	4037	4038	4039	3	0.628	1.883	0.000	-2.510	-0.000	0.000
4078	4040	4038	4039	3	0.628	1.883	0.000	-2.510	-0.000	0.000
4074	4037	4038	4041	3	0.628	1.883	0.000	-2.510	-0.000	0.000
4082	4041	4038	4040	3	0.628	1.883	0.000	-2.510	-0.000	0.000
4076	4039	4038	4040	3	0.628	1.883	0.000	-2.510	-0.000	0.000
4075	4039	4038	4041	3	0.628	1.883	0.000	-2.510	-0.000	0.000
4082	4041	4038	4037	3	0.628	1.883	0.000	-2.510	-0.000	0.000
4073	4037	4038	4041	3	0.628	1.883	0.000	-2.510	-0.000	0.000
4080	4040	4038	4039	3	0.628	1.883	0.000	-2.510	-0.000	0.000
4081	4041	4038	4040	3	0.628	1.883	0.000	-2.510	-0.000	0.000
4080	4040	4038	4041	3	0.628	1.883	0.000	-2.510	-0.000	0.000
4049	3988	3987	4048	3	0.628	1.883	0.000	-2.510	-0.000	0.000
4050	3988	3987	4047	3	0.628	1.883	0.000	-2.510	-0.000	0.000
4049	3988	3987	4047	3	0.628	1.883	0.000	-2.510	-0.000	0.000
4050	3988	3987	4048	3	0.628	1.883	0.000	-2.510	-0.000	0.000
4050	3988	3987	3986	3	-4.096	5.088	2.966	-3.958	-0.000	0.000
4049	3988	3987	3986	3	-4.096	5.088	2.966	-3.958	-0.000	0.000
4048	3987	3988	3989	3	0.979	2.937	0.000	-3.916	-0.000	0.000
4047	3987	3988	3989	3	0.979	2.937	0.000	-3.916	-0.000	0.000
4048	3987	3986	4003	3	1.172	3.515	0.000	-4.686	-0.000	0.000
4044	3985	3986	4003	3	1.172	3.515	0.000	-4.686	-0.000	0.000
4047	3987	3986	4003	3	1.172	3.515	0.000	-4.686	-0.000	0.000
4045	3985	3986	4003	3	1.172	3.515	0.000	-4.686	-0.000	0.000
4046	3985	3986	4003	3	1.172	3.515	0.000	-4.686	-0.000	0.000
4047	3987	3986	3985	3	1.172	3.515	0.000	-4.686	-0.000	0.000
4045	3985	3986	3987	3	1.172	3.515	0.000	-4.686	-0.000	0.000
4048	3987	3986	3985	3	1.172	3.515	0.000	-4.686	-0.000	0.000
4046	3985	3986	3987	3	1.172	3.515	0.000	-4.686	-0.000	0.000
4044	3985	3986	3987	3	1.172	3.515	0.000	-4.686	-0.000	0.000
4049	3988	3989	3990	3	1.590	4.770	0.000	-6.360	-0.000	0.000
4050	3988	3989	3990	3	1.590	4.770	0.000	-6.360	-0.000	0.000
4055	3998	3997	3999	3	0.0	0.0	0.0	-0.0	-0.0	0.0
4055	3998	3997	3996	3	0.0	0.0	0.0	-0.0	-0.0	0.0
3998	3997	3996	3995	3	0.0	0.0	0.0	-0.0	-0.0	0.0
4025	4026	4015	4014	3	2.874	0.582	2.092	-5.548	-0.000	0.000
4025	4026	4015	4016	3	1.046	-1.046	0.000	-0.000	-0.000	0.000
3989	3988	3987	3986	3	16.736	-16.736	0.000	-0.000	-0.000	0.000
4025	4019	4016	4015	3	1.046	-1.046	0.000	-0.000	-0.000	0.000
4025	4019	4016	4017	3	9.079	0.000	-9.079	-0.000	-0.000	0.000
4094	4093	4092	4091	3	30.334	0.000	-30.334	-0.000	-0.000	0.000
4093	4101	4102	4090	3	30.334	0.000	-30.334	-0.000	-0.000	0.000
4093	4092	4091	4090	3	30.334	0.000	-30.334	-0.000	-0.000	0.000
4114	4113	4112	4111	3	21.738	2.408	-16.966	-7.180	-0.000	0.000
4110	4109	4108	4107	3	21.738	2.408	-16.966	-7.180	-0.000	0.000
4111	4110	4109	4108	3	21.738	2.408	-16.966	-7.180	-0.000	0.000
4112	4111	4110	4109	3	21.738	2.408	-16.966	-7.180	-0.000	0.000
4113	4112	4111	4110	3	21.738	2.408	-16.966	-7.180	-0.000	0.000
4109	4108	4107	4106	3	58.576	0.000	-58.576	-0.000	-0.000	0.000
4108	4107	4106	4105	3	16.027	-4.391	-14.029	2.393	-0.000	0.000
4107	4106	4105	4104	3	30.334	0.000	-30.334	-0.000	-0.000	0.000
4116	4115	4114	4113	3	58.576	0.000	-58.576	-0.000	-0.000	0.000
4101	4093	4094	4100	3	9.079	0.000	-9.079	-0.000	-0.000	0.000
4100	4094	4093	4092	3	9.079	0.000	-9.079	-0.000	-0.000	0.000
4101	4093	4094	4095	3	9.079	0.000	-9.079	-0.000	-0.000	0.000
4095	4094	4093	4092	3	9.079	0.000	-9.079	-0.000	-0.000	0.000
4100	4094	4095	4096	3	30.334	0.000	-30.334	-0.000	-0.000	0.000
4101	4093	4092	4091	3	30.334	0.000	-30.334	-0.000	-0.000	0.000
4099	4100	4094	4093	3	30.334	0.000	-30.334	-0.000	-0.000	0.000
4102	4101	4093	4094	3	30.334	0.000	-30.334	-0.000	-0.000	0.000
4096	4095	4094	4093	3	30.334	0.000	-30.334	-0.000	-0.000	0.000
4099	4100	4094	4095	3	30.334	0.000	-30.334	-0.000	-0.000	0.000
4102	4101	4093	4092	3	30.334	0.000	-30.334	-0.000	-0.000	0.000
4142	4106	4107	4108	3	16.027	-4.391	-14.029	2.393	-0.000	0.000
4097	4099	4100	4094	3	30.334	0.000	-30.334	-0.000	-0.000	0.000
4097	4096	4095	4094	3	30.334	0.000	-30.334	-0.000	-0.000	0.000
4143	4142	4106	4107	3	30.334	0.000	-30.334	-0.000	-0.000	0.000
4132	4127	4128	4129	3	30.334	0.000	-30.334	-0.000	-0.000	0.000
4143	4142	4106	4105	3	30.334	0.000	-30.334	-0.000	-0.000	0.000
4102	4090	4091	4092	3	30.334	0.000	-30.334	-0.000	-0.000	0.000
4142	4143	4103	4104	3	30.334	0.000	-30.334	-0.000	-0.000	0.000
4132	4131	4130	4129	3	30.334	0.000	-30.334	-0.000	-0.000	0.000
4131	4130	4129	4128	3	30.334	0.000	-30.334	-0.000	-0.000	0.000
4130	4129	4128	4127	3	30.334	0.000	-30.334	-0.000	-0.000	0.000
4106	4105	4104	4103	3	30.334	0.000	-30.334	-0.000	-0.000	0.000
4106	4142	4143	4103	3	30.334	0.000	-30.334	-0.000	-0.000	0.000
4143	4103	4104	4105	3	30.334	0.000	-30.334	-0.000	-0.000	0.000
4142	4106	4105	4104	3	30.334	0.000	-30.334	-0.000	-0.000	0.000
4131	4132	4127	4128	3	30.334	0.000	-30.334	-0.000	-0.000	0.000
4100	4099	4097	4096	3	30.334	0.000	-30.334	-0.000	-0.000	0.000
4101	4102	4090	4091	3	30.334	0.000	-30.334	-0.000	-0.000	0.000
4130	4131	4132	4127	3	30.334	0.000	-30.334	-0.000	-0.000	0.000
4099	4097	4096	4095	3	30.334	0.000	-30.334	-0.000	-0.000	0.000
4131	4132	4127	4126	3	30.334	0.000	-30.334	-0.000	-0.000	0.000
4129	4128	4127	4126	3	30.334	0.000	-30.334	-0.000	-0.000	0.000
4142	4143	4103	4086	3	30.334	0.000	-30.334	-0.000	-0.000	0.000
4105	4104	4103	4086	3	30.334	0.000	-30.334	-0.000	-0.000	0.000
4100	4099	4097	4098	3	0.0	0.0	0.0	-0.0	-0.0	0.0
4092	4091	4090	4089	3	30.334	0.000	-30.334	-0.000	-0.000	0.000
4101	4102	4090	4089	3	30.334	0.000	-30.334	-0.000	-0.000	0.000
4132	4127	4126	4115	3	0.000	0.000	0.000	-0.000	-0.000	0.000
4128	4127	4126	4115	3	0.000	0.000	0.000	-0.000	-0.000	0.000
4132	4127	4126	4125	3	0.000	0.000	0.000	-0.000	-0.000	0.000
4128	4127	4126	4125	3	0.000	0.000	0.000	-0.000	-0.000	0.000
4143	4103	4086	4087	3	5.184	35.932	-14.355	-26.761	-0.000	0.000
4104	4103	4086	4087	3	5.184	35.932	-14.355	-26.761	-0.000	0.000
4104	4103	4086	4085	3	5.184	35.932	-14.355	-26.761	-0.000	0.000
4143	4103	4086	4085	3	5.184	35.932	-14.355	-26.761	-0.000	0.000
4091	4090	4089	4088	3	12.552	0.000	-12.552	-0.000	-0.000	0.000
4102	4090	4089	4088	3	12.552	0.000	-12.552	-0.000	-0.000	0.000
4127	4126	4115	4114	3	6.322	-2.485	0.707	-4.544	-0.000	0.000
4127	4126	4115	4116	3	0.527	-6.397	-1.695	7.565	-0.000	0.000
4127	4126	4125	4119	3	1.715	2.845	1.046	-5.607	-0.000	0.000
4103	4086	4087	4088	3	1.789	3.492	0.536	-5.816	-0.000	0.000
4090	4089	4088	4087	3	1.715	2.845	1.046	-5.607	-0.000	0.000
4133	4126	4127	4128	3	0.000	0.000	0.000	-0.000	-0.000	0.000
4133	4126	4127	4132	3	0.000	0.000	0.000	-0.000	-0.000	0.000
4133	4126	4115	4114	3	6.322	-2.485	0.707	-4.544	-0.000	0.000
4133	4126	4115	4116	3	0.527	-6.397	-1.695	7.565	-0.000	0.000
4133	4126	4125	4119	3	1.715	2.845	1.046	-5.607	-0.000	0.000
4115	4114	4113	4112	3	21.738	2.408	-16.966	-7.180	-0.000	0.000
4120	4119	4116	4115	3	21.738	2.408	-16.966	-7.180	-0.000	0.000
4120	4119	4116	4117	3	-0.778	-2.335	0.000	3.113	-0.000	0.000
4141	4109	4108	4107	3	58.576	0.000	-58.576	-0.000	-0.000	0.000
4137	4111	4110	4109	3	58.576	0.000	-58.576	-0.000	-0.000	0.000
4141	4109	4110	4111	3	58.576	0.000	-58.576	-0.000	-0.000	0.000
4137	4111	4112	4113	3	58.576	0.000	-58.576	-0.000	-0.000	0.000
4126	4115	4114	4113	3	-0.778	-2.335	0.000	3.113	-0.000	0.000
4126	4115	4116	4119	3	58.576	0.000	-58.576	-0.000	-0.000	0.000
4126	4115	4116	4117	3	58.576	0.000	-58.576	-0.000	-0.000	0.000
4138	4141	4109	4108	3	0.527	-6.397	-1.695	7.565	-0.000	0.000
4138	4137	4111	4112	3	0.527	-6.397	-1.695	7.565	-0.000	0.000
4138	4137	4111	4110	3	0.527	-6.397	-1.695	7.565	-0.000	0.000
4138	4141	4109	4110	3	0.527	-6.397	-1.695	7.565	-0.000	0.000
4141	4138	4137	4111	3	2.301	-1.464	0.837	-1.674	-0.000	0.000
4140	4138	4141	4109	3	2.301	-1.464	0.837	-1.674	-0.000	0.000
4137	4138	4141	4109	3	2.301	-1.464	0.837	-1.674	-0.000	0.000
4139	4138	4141	4109	3	2.301	-1.464	0.837	-1.674	-0.000	0.000
4140	4138	4137	4111	3	2.301	-1.464	0.837	-1.674	-0.000	0.000
4139	4138	4137	4111	3	2.301	-1.464	0.837	-1.674	-0.000	0.000
4088	4087	4086	4085	3	1.789	3.492	0.536	-5.816	-0.000	0.000
4126	4125	4119	4116	3	30.334	0.000	-30.334	-0.000	-0.000	0.000
4126	4125	4119	4120	3	30.334	0.000	-30.334	-0.000	-0.000	0.000
4119	4116	4115	4114	3	58.576	0.000	-58.576	-0.000	-0.000	0.000
4119	4125	4126	4115	3	1.715	2.845	1.046	-5.607	-0.000	0.000
4117	4116	4115	4114	3	58.576	0.000	-58.576	-0.000	-0.000	0.000
4121	4120	4119	4116	3	58.576	0.000	-58.576	-0.000	-0.000	0.000
4123	4120	4119	4116	3	58.576	0.000	-58.576	-0.000	-0.000	0.000
4134	4133	4126	4127	3	0.000	0.000	0.000	-0.000	-0.000	0.000
4135	4133	4126	4127	3	0.000	0.000	0.000	-0.000	-0.000	0.000
4136	4133	4126	4127	3	0.000	0.000	0.000	-0.000	-0.000	0.000
4135	4133	4126	4115	3	0.000	0.000	0.000	-0.000	-0.000	0.000
4134	4133	4126	4115	3	0.000	0.000	0.000	-0.000	-0.000	0.000
4136	4133	4126	4115	3	0.000	0.000	0.000	-0.000	-0.000	0.000
4135	4133	4126	4125	3	1.130	3.389	0.000	-4.519	-0.000	0.000
4136	4133	4126	4125	3	1.130	3.389	0.000	-4.519	-0.000	0.000
4134	4133	4126	4125	3	1.130	3.389	0.000	-4.519	-0.000	0.000
4164	4110	4109	4108	3	58.576	0.000	-58.576	-0.000	-0.000	0.000
4164	4110	4111	4112	3	58.576	0.000	-58.576	-0.000	-0.000	0.000
4164	4110	4111	4137	3	58.576	0.000	-58.576	-0.000	-0.000	0.000
4164	4110	4109	4141	3	58.576	0.000	-58.576	-0.000	-0.000	0.000
4153	4095	4094	4093	3	30.334	0.000	-30.334	-0.000	-0.000	0.000
4152	4092	4093	4094	3	30.334	0.000	-30.334	-0.000	-0.000	0.000
4158	4101	4093	4094	3	30.334	0.000	-30.334	-0.000	-0.000	0.000
4157	4100	4094	4093	3	30.334	0.000	-30.334	-0.000	-0.000	0.000
4157	4100	4094	4095	3	30.334	0.000	-30.334	-0.000	-0.000	0.000
4153	4095	4094	4100	3	30.334	0.000	-30.334	-0.000	-0.000	0.000
4152	4092	4093	4101	3	30.334	0.000	-30.334	-0.000	-0.000	0.000
4158	4101	4093	4092	3	30.334	0.000	-30.334	-0.000	-0.000	0.000
4151	4091	4092	4093	3	30.334	0.000	-30.334	-0.000	-0.000	0.000
4159	4102	4101	4093	3	30.334	0.000	-30.334	-0.000	-0.000	0.000
4154	4096	4095	4094	3	30.334	0.000	-30.334	-0.000	-0.000	0.000
4156	4099	4100	4094	3	30.334	0.000	-30.334	-0.000	-0.000	0.000
4161	4105	4106	4107	3	30.334	0.000	-30.334	-0.000	-0.000	0.000
4183	4142	4106	4107	3	30.334	0.000	-30.334	-0.000	-0.000	0.000
4168	4128	4129	4130	3	30.334	0.000	-30.334	-0.000	-0.000	0.000
4156	4099	4097	4096	3	30.334	0.000	-30.334	-0.000	-0.000	0.000
4171	4131	4130	4129	3	30.334	0.000	-30.334	-0.000	-0.000	0.000
4183	4142	4143	4103	3	30.334	0.000	-30.334	-0.000	-0.000	0.000
4169	4129	4128	4127	3	30.334	0.000	-30.334	-0.000	-0.000	0.000
4184	4143	4142	4106	3	30.334	0.000	-30.334	-0.000	-0.000	0.000
4170	4130	4129	4128	3	30.334	0.000	-30.334	-0.000	-0.000	0.000
4159	4102	4090	4091	3	30.334	0.000	-30.334	-0.000	-0.000	0.000
4158	4101	4102	4090	3	30.334	0.000	-30.334	-0.000	-0.000	0.000
4183	4142	4106	4105	3	30.334	0.000	-30.334	-0.000	-0.000	0.000
4184	4143	4103	4104	3	30.334	0.000	-30.334	-0.000	-0.000	0.000
4171	4131	4132	4127	3	30.334	0.000	-30.334	-0.000	-0.000	0.000
4168	4128	4127	4132	3	30.334	0.000	-30.334	-0.000	-0.000	0.000
4153	4095	4096	4097	3	30.334	0.000	-30.334	-0.000	-0.000	0.000
4154	4096	4097	4099	3	30.334	0.000	-30.334	-0.000	-0.000	0.000
4151	4091	4090	4102	3	30.334	0.000	-30.334	-0.000	-0.000	0.000
4160	4104	4103	4143	3	30.334	0.000	-30.334	-0.000	-0.000	0.000
4160	4104	4105	4106	3	30.334	0.000	-30.334	-0.000	-0.000	0.000
4157	4100	4099	4097	3	30.334	0.000	-30.334	-0.000	-0.000	0.000
4161	4105	4106	4142	3	30.334	0.000	-30.334	-0.000	-0.000	0.000
4170	4130	4131	4132	3	30.334	0.000	-30.334	-0.000	-0.000	0.000
4172	4132	4131	4130	3	30.334	0.000	-30.334	-0.000	-0.000	0.000
4169	4129	4130	4131	3	30.334	0.000	-30.334	-0.000	-0.000	0.000
4172	4132	4127	4128	3	30.334	0.000	-30.334	-0.000	-0.000	0.000
4152	4092	4091	4090	3	30.334	0.000	-30.334	-0.000	-0.000	0.000
4161	4105	4104	4103	3	30.334	0.000	-30.334	-0.000	-0.000	0.000
4172	4132	4127	4126	3	30.334	0.000	-30.334	-0.000	-0.000	0.000
4168	4128	4127	4126	3	30.334	0.000	-30.334	-0.000	-0.000	0.000
4161	4105	4104	4160	3	30.334	0.000	-30.334	-0.000	-0.000	0.000
4184	4143	4142	4183	3	30.334	0.000	-30.334	-0.000	-0.000	0.000
4170	4130	4129	4169	3	30.334	0.000	-30.334	-0.000	-0.000	0.000
4154	4096	4095	4153	3	30.334	0.000	-30.334	-0.000	-0.000	0.000
4159	4102	4101	4158	3	30.334	0.000	-30.334	-0.000	-0.000	0.000
4157	4100	4099	4156	3	30.334	0.000	-30.334	-0.000	-0.000	0.000
4169	4129	4128	4168	3	30.334	0.000	-30.334	-0.000	-0.000	0.000
4152	4092	4091	4151	3	30.334	0.000	-30.334	-0.000	-0.000	0.000
4171	4131	4130	4170	3	30.334	0.000	-30.334	-0.000	-0.000	0.000
4172	4132	4131	4171	3	30.334	0.000	-30.334	-0.000	-0.000	0.000
4184	4143	4103	4086	3	30.334	0.000	-30.334	-0.000	-0.000	0.000
4160	4104	4103	4086	3	30.334	0.000	-30.334	-0.000	-0.000	0.000
4154	4096	4097	4098	3	0.0	0.0	0.0	-0.0	-0.0	0.0
4156	4099	4097	4098	3	0.0	0.0	0.0	-0.0	-0.0	0.0
4151	4091	4090	4089	3	30.334	0.000	-30.334	-0.000	-0.000	0.000
4159	4102	4090	4089	3	30.334	0.000	-30.334	-0.000	-0.000	0.000
4165	4112	4111	4110	3	58.576	0.000	-58.576	-0.000	-0.000	0.000
4165	4112	4113	4114	3	58.576	0.000	-58.576	-0.000	-0.000	0.000
4167	4114	4113	4112	3	58.576	0.000	-58.576	-0.000	-0.000	0.000
4166	4113	4112	4111	3	58.576	0.000	-58.576	-0.000	-0.000	0.000
4163	4108	4109	4110	3	58.576	0.000	-58.576	-0.000	-0.000	0.000
4162	4107	4108	4109	3	58.576	0.000	-58.576	-0.000	-0.000	0.000
4163	4108	4107	4106	3	58.576	0.000	-58.576	-0.000	-0.000	0.000
4166	4113	4114	4115	3	58.576	0.000	-58.576	-0.000	-0.000	0.000
4165	4112	4111	4137	3	58.576	0.000	-58.576	-0.000	-0.000	0.000
4163	4108	4109	4141	3	58.576	0.000	-58.576	-0.000	-0.000	0.000
4163	4108	4107	4162	3	58.576	0.000	-58.576	-0.000	-0.000	0.000
4166	4113	4112	4165	3	58.576	0.000	-58.576	-0.000	-0.000	0.000
4167	4114	4113	4166	3	58.576	0.000	-58.576	-0.000	-0.000	0.000
4162	4107	4106	4142	3	-0.778	-2.335	0.000	3.113	-0.000	0.000
4162	4107	4106	4105	3	-0.778	-2.335	0.000	3.113	-0.000	0.000
4167	4114	4115	4116	3	58.576	0.000	-58.576	-0.000	-0.000	0.000
4167	4114	4115	4126	3	58.576	0.000	-58.576	-0.000	-0.000	0.000
4181	4141	4109	4108	3	-0.778	-2.335	0.000	3.113	-0.000	0.000
4181	4141	4109	4110	3	-0.778	-2.335	0.000	3.113	-0.000	0.000
4182	4141	4109	4108	3	-0.778	-2.335	0.000	3.113	-0.000	0.000
4174	4137	4111	4112	3	-0.778	-2.335	0.000	3.113	-0.000	0.000
4182	4141	4109	4110	3	-0.778	-2.335	0.000	3.113	-0.000	0.000
4173	4137	4111	4110	3	-0.778	-2.335	0.000	3.113	-0.000	0.000
4174	4137	4111	4110	3	-0.778	-2.335	0.000	3.113	-0.000	0.000
4173	4137	4111	4112	3	-0.778	-2.335	0.000	3.113	-0.000	0.000
4176	4139	4138	4141	3	0.628	1.883	0.000	-2.510	-0.000	0.000
4175	4139	4138	4140	3	0.628	1.883	0.000	-2.510	-0.000	0.000
4175	4139	4138	4137	3	0.628	1.883	0.000	-2.510	-0.000	0.000
4177	4139	4138	4140	3	0.628	1.883	0.000	-2.510	-0.000	0.000
4179	4140	4138	4137	3	0.628	1.883	0.000	-2.510	-0.000	0.000
4178	4140	4138	4137	3	0.628	1.883	0.000	-2.510	-0.000	0.000
4177	4139	4138	4137	3	0.628	1.883	0.000	-2.510	-0.000	0.000
4179	4140	4138	4139	3	0.628	1.883	0.000	-2.510	-0.000	0.000
4176	4139	4138	4137	3	0.628	1.883	0.000	-2.510	-0.000	0.000
4181	4141	4138	4137	3	0.628	1.883	0.000	-2.510	-0.000	0.000
4181	4141	4138	4139	3	0.628	1.883	0.000	-2.510	-0.000	0.000
4174	4137	4138	4139	3	0.628	1.883	0.000	-2.510	-0.000	0.000
4177	4139	4138	4141	3	0.628	1.883	0.000	-2.510	-0.000	0.000
4174	4137	4138	4140	3	0.628	1.883	0.000	-2.510	-0.000	0.000
4182	4141	4138	4139	3	0.628	1.883	0.000	-2.510	-0.000	0.000
4178	4140	4138	4141	3	0.628	1.883	0.000	-2.510	-0.000	0.000
4179	4140	4138	4141	3	0.628	1.883	0.000	-2.510	-0.000	0.000
4180	4140	4138	4137	3	0.628	1.883	0.000	-2.510	-0.000	0.000
4173	4137	4138	4140	3	0.628	1.883	0.000	-2.510	-0.000	0.000
4173	4137	4138	4139	3	0.628	1.883	0.000	-2.510	-0.000	0.000
4178	4140	4138	4139	3	0.628	1.883	0.000	-2.510	-0.000	0.000
4174	4137	4138	4141	3	0.628	1.883	0.000	-2.510	-0.000	0.000
4182	4141	4138	4140	3	0.628	1.883	0.000	-2.510	-0.000	0.000
4176	4139	4138	4140	3	0.628	1.883	0.000	-2.510	-0.000	0.000
4175	4139	4138	4141	3	0.628	1.883	0.000	-2.510	-0.000	0.000
4182	4141	4138	4137	3	0.628	1.883	0.000	-2.510	-0.000	0.000
4173	4137	4138	4141	3	0.628	1.883	0.000	-2.510	-0.000	0.000
4180	4140	4138	4139	3	0.628	1.883	0.000	-2.510	-0.000	0.000
4181	4141	4138	4140	3	0.628	1.883	0.000	-2.510	-0.000	0.000
4180	4140	4138	4141	3	0.628	1.883	0.000	-2.510	-0.000	0.000
4149	4088	4087	4148	3	0.628	1.883	0.000	-2.510	-0.000	0.000
4150	4088	4087	4147	3	0.628	1.883	0.000	-2.510	-0.000	0.000
4149	4088	4087	4147	3	0.628	1.883	0.000	-2.510	-0.000	0.000
4150	4088	4087	4148	3	0.628	1.883	0.000	-2.510	-0.000	0.000
4150	4088	4087	4086	3	-4.096	5.088	2.966	-3.958	-0.000	0.000
4149	4088	4087	4086	3	-4.096	5.088	2.966	-3.958	-0.000	0.000
4148	4087	4088	4089	3	0.979	2.937	0.000	-3.916	-0.000	0.000
4147	4087	4088	4089	3	0.979	2.937	0.000	-3.916	-0.000	0.000
4148	4087	4086	4103	3	1.172	3.515	0.000	-4.686	-0.000	0.000
4144	4085	4086	4103	3	1.172	3.515	0.000	-4.686	-0.000	0.000
4147	4087	4086	4103	3	1.172	3.515	0.000	-4.686	-0.000	0.000
4145	4085	4086	4103	3	1.172	3.515	0.000	-4.686	-0.000	0.000
4146	4085	4086	4103	3	1.172	3.515	0.000	-4.686	-0.000	0.000
4147	4087	4086	4085	3	1.172	3.515	0.000	-4.686	-0.000	0.000
4145	4085	4086	4087	3	1.172	3.515	0.000	-4.686	-0.000	0.000
4148	4087	4086	4085	3	1.172	3.515	0.000	-4.686	-0.000	0.000
4146	4085	4086	4087	3	1.172	3.515	0.000	-4.686	-0.000	0.000
4144	4085	4086	4087	3	1.172	3.515	0.000	-4.686	-0.000	0.000
4149	4088	4089	4090	3	1.590	4.770	0.000	-6.360	-0.000	0.000
4150	4088	4089	4090	3	1.590	4.770	0.000	-6.360	-0.000	0.000
4155	4098	4097	4099	3	0.0	0.0	0.0	-0.0	-0.0	0.0
4155	4098	4097	4096	3	0.0	0.0	0.0	-0.0	-0.0	0.0
4098	4097	4096	4095	3	0.0	0.0	0.0	-0.0	-0.0	0.0
4125	4126	4115	4114	3	2.874	0.582	2.092	-5.548	-0.000	0.000
4125	4126	4115	4116	3	1.046	-1.046	0.000	-0.000	-0.000	0.000
4089	4088	4087	4086	3	16.736	-16.736	0.000	-0.000	-0.000	0.000
4125	4119	4116	4115	3	1.046	-1.046	0.000	-0.000	-0.000	0.000
4125	4119	4116	4117	3	9.079	0.000	-9.079	-0.000	-0.000	0.000
4194	4193	4192	4191	3	30.334	0.000	-30.334	-0.000	-0.000	0.000
4193	4201	4202	4190	3	30.334	0.000	-30.334	-0.000	-0.000	0.000
4193	4192	4191	4190	3	30.334	0.000	-30.334	-0.000	-0.000	0.000
4214	4213	4212	4211	3	21.738	2.408	-16.966	-7.180	-0.000	0.000
4210	4209	4208	4207	3	21.738	2.408	-16.966	-7.180	-0.000	0.000
4211	4210	4209	4208	3	21.738	2.408	-16.966	-7.180	-0.000	0.000
4212	4211	4210	4209	3	21.738	2.408	-16.966	-7.180	-0.000	0.000
4213	4212	4211	4210	3	21.738	2.408	-16.966	-7.180	-0.000	0.000
4209	4208	4207	4206	3	58.576	0.000	-58.576	-0.000	-0.000	0.000
4208	4207	4206	4205	3	16.027	-4.391	-14.029	2.393	-0.000	0.000
4207	4206	4205	4204	3	30.334	0.000	-30.334	-0.000	-0.000	0.000
4216	4215	4214	4213	3	58.576	0.000	-58.576	-0.000	-0.000	0.000
4201	4193	4194	4200	3	9.079	0.000	-9.079	-0.000	-0.000	0.000
4200	4194	4193	4192	3	9.079	0.000	-9.079	-0.000	-0.000	0.000
4201	4193	4194	4195	3	9.079	0.000	-9.079	-0.000	-0.000	0.000
4195	4194	4193	4192	3	9.079	0.000	-9.079	-0.000	-0.000	0.000
4200	4194	4195	4196	3	30.334	0.000	-30.334	-0.000	-0.000	0.000
4201	4193	4192	4191	3	30.334	0.000	-30.334	-0.000	-0.000	0.000
4199	4200	4194	4193	3	30.334	0.000	-30.334	-0.000	-0.000	0.000
4202	4201	4193	4194	3	30.334	0.000	-30.334	-0.000	-0.000	0.000
4196	4195	4194	4193	3	30.334	0.000	-30.334	-0.000	-0.000	0.000
4199	4200	4194	4195	3	30.334	0.000	-30.334	-0.000	-0.000	0.000
4202	4201	4193	4192	3	30.334	0.000	-30.334	-0.000	-0.000	0.000
4242	4206	4207	4208	3	16.027	-4.391	-14.029	2.393	-0.000	0.000
4197	4199	4200	4194	3	30.334	0.000	-30.334	-0.000	-0.000	0.000
4197	4196	4195	4194	3	30.334	0.000	-30.334	-0.000	-0.000	0.000
4243	4242	4206	4207	3	30.334	0.000	-30.334	-0.000	-0.000	0.000
4232	4227	4228	4229	3	30.334	0.000	-30.334	-0.000	-0.000	0.000
4243	4242	4206	4205	3	30.334	0.000	-30.334	-0.000	-0.000	0.000
4202	4190	4191	4192	3	30.334	0.000	-30.334	-0.000	-0.000	0.000
4242	4243	4203	4204	3	30.334	0.000	-30.334	-0.000	-0.000	0.000
4232	4231	4230	4229	3	30.334	0.000	-30.334	-0.000	-0.000	0.000
4231	4230	4229	4228	3	30.334	0.000	-30.334	-0.000	-0.000	0.000
4230	4229	4228	4227	3	30.334	0.000	-30.334	-0.000	-0.000	0.000
4206	4205	4204	4203	3	30.334	0.000	-30.334	-0.000	-0.000	0.000
4206	4242	4243	4203	3	30.334	0.000	-30.334	-0.000	-0.000	0.000
4243	4203	4204	4205	3	30.334	0.000	-30.334	-0.000	-0.000	0.000
4242	4206	4205	4204	3	30.334	0.000	-30.334	-0.000	-0.000	0.000
4231	4232	4227	4228	3	30.334	0.000	-30.334	-0.000	-0.000	0.000
4200	4199	4197	4196	3	30.334	0.000	-30.334	-0.000	-0.000	0.000
4201	4202	4190	4191	3	30.334	0.000	-30.334	-0.000	-0.000	0.000
4230	4231	4232	4227	3	30.334	0.000	-30.334	-0.000	-0.000	0.000
4199	4197	4196	4195	3	30.334	0.000	-30.334	-0.000	-0.000	0.000
4231	4232	4227	4226	3	30.334	0.000	-30.334	-0.000	-0.000	0.000
4229	4228	4227	4226	3	30.334	0.000	-30.334	-0.000	-0.000	0.000
4242	4243	4203	4186	3	30.334	0.000	-30.334	-0.000	-0.000	0.000
4205	4204	4203	4186	3	30.334	0.000	-30.334	-0.000	-0.000	0.000
4200	4199	4197	4198	3	0.0	0.0	0.0	-0.0	-0.0	0.0
4192	4191	4190	4189	3	30.334	0.000	-30.334	-0.000	-0.000	0.000
4201	4202	4190	4189	3	30.334	0.000	-30.334	-0.000	-0.000	0.000
4232	4227	4226	4215	3	0.000	0.000	0.000	-0.000	-0.000	0.000
4228	4227	4226	4215	3	0.000	0.000	0.000	-0.000	-0.000	0.000
4232	4227	4226	4225	3	0.000	0.000	0.000	-0.000	-0.000	0.000
4228	4227	4226	4225	3	0.000	0.000	0.000	-0.000	-0.000	0.000
4243	4203	4186	4187	3	5.184	35.932	-14.355	-26.761	-0.000	0.000
4204	4203	4186	4187	3	5.184	35.932	-14.355	-26.761	-0.000	0.000
4204	4203	4186	4185	3	5.184	35.932	-14.355	-26.761	-0.000	0.000
4243	4203	4186	4185	3	5.184	35.932	-14.355	-26.761	-0.000	0.000
4191	4190	4189	4188	3	12.552	0.000	-12.552	-0.000	-0.000	0.000
4202	4190	4189	4188	3	12.552	0.000	-12.552	-0.000	-0.000	0.000
4227	4226	4215	4214	3	6.322	-2.485	0.707	-4.544	-0.000	0.000
4227	4226	4215	4216	3	0.527	-6.397	-1.695	7.565	-0.000	0.000
4227	4226	4225	4219	3	1.715	2.845	1.046	-5.607	-0.000	0.000
4203	4186	4187	4188	3	1.789	3.492	0.536	-5.816	-0.000	0.000
4190	4189	4188	4187	3	1.715	2.845	1.046	-5.607	-0.000	0.000
4233	4226	4227	4228	3	0.000	0.000	0.000	-0.000	-0.000	0.000
4233	4226	4227	4232	3	0.000	0.000	0.000	-0.000	-0.000	0.000
4233	4226	4215	4214	3	6.322	-2.485	0.707	-4.544	-0.000	0.000
4233	4226	4215	4216	3	0.527	-6.397	-1.695	7.565	-0.000	0.000
4233	4226	4225	4219	3	1.715	2.845	1.046	-5.607	-0.000	0.000
4215	4214	4213	4212	3	21.738	2.408	-16.966	-7.180	-0.000	0.000
4220	4219	4216	4215	3	21.738	2.408	-16.966	-7.180	-0.000	0.000
4220	4219	4216	4217	3	-0.778	-2.335	0.000	3.113	-0.000	0.000
4241	4209	4208	4207	3	58.576	0.000	-58.576	-0.000	-0.000	0.000
4237	4211	4210	4209	3	58.576	0.000	-58.576	-0.000	-0.000	0.000
4241	4209	4210	4211	3	58.576	0.000	-58.576	-0.000	-0.000	0.000
4237	4211	4212	4213	3	58.576	0.000	-58.576	-0.000	-0.000	0.000
4226	4215	4214	4213	3	-0.778	-2.335	0.000	3.113	-0.000	0.000
4226	4215	4216	4219	3	58.576	0.000	-58.576	-0.000	-0.000	0.000
4226	4215	4216	4217	3	58.576	0.000	-58.576	-0.000	-0.000	0.000
4238	4241	4209	4208	3	0.527	-6.397	-1.695	7.565	-0.000	0.000
4238	4237	4211	4212	3	0.527	-6.397	-1.695	7.565	-0.000	0.000
4238	4237	4211	4210	3	0.527	-6.397	-1.695	7.565	-0.000	0.000
4238	4241	4209	4210	3	0.527	-6.397	-1.695	7.565	-0.000	0.000
4241	4238	4237	4211	3	2.301	-1.464	0.837	-1.674	-0.000	0.000
4240	4238	4241	4209	3	2.301	-1.464	0.837	-1.674	-0.000	0.000
4237	4238	4241	4209	3	2.301	-1.464	0.837	-1.674	-0.000	0.000
4239	4238	4241	4209	3	2.301	-1.464	0.837	-1.674	-0.000	0.000
4240	4238	4237	4211	3	2.301	-1.464	0.837	-1.674	-0.000	0.000
4239	4238	4237	4211	3	2.301	-1.464	0.837	-1.674	-0.000	0.000
4188	4187	4186	4185	3	1.789	3.492	0.536	-5.816	-0.000	0.000
4226	4225	4219	4216	3	30.334	0.000	-30.334	-0.000	-0.000	0.000
4226	4225	4219	4220	3	30.334	0.000	-30.334	-0.000	-0.000	0.000
4219	4216	4215	4214	3	58.576	0.000	-58.576	-0.000	-0.000	0.000
4219	4225	4226	4215	3	1.715	2.845	1.046	-5.607	-0.000	0.000
4217	4216	4215	4214	3	58.576	0.000	-58.576	-0.000	-0.000	0.000
4221	4220	4219	4216	3	58.576	0.000	-58.576	-0.000	-0.000	0.000
4223	4220	4219	4216	3	58.576	0.000	-58.576	-0.000	-0.000	0.000
4234	4233	4226	4227	3	0.000	0.000	0.000	-0.000	-0.000	0.000
4235	4233	4226	4227	3	0.000	0.000	0.000	-0.000	-0.000	0.000
4236	4233	4226	4227	3	0.000	0.000	0.000	-0.000	-0.000	0.000
4235	4233	4226	4215	3	0.000	0.000	0.000	-0.000	-0.000	0.000
4234	4233	4226	4215	3	0.000	0.000	0.000	-0.000	-0.000	0.000
4236	4233	4226	4215	3	0.000	0.000	0.000	-0.000	-0.000	0.000
4235	4233	4226	4225	3	1.130	3.389	0.000	-4.519	-0.000	0.000
4236	4233	4226	4225	3	1.130	3.389	0.000	-4.519	-0.000	0.000
4234	4233	4226	4225	3	1.130	3.389	0.000	-4.519	-0.000	0.000
4264	4210	4209	4208	3	58.576	0.000	-58.576	-0.000	-0.000	0.000
4264	4210	4211	4212	3	58.576	0.000	-58.576	-0.000	-0.000	0.000
4264	4210	4211	4237	3	58.576	0.000	-58.576	-0.000	-0.000	0.000
4264	4210	4209	4241	3	58.576	0.000	-58.576	-0.000	-0.000	0.000
4253	4195	4194	4193	3	30.334	0.000	-30.334	-0.000	-0.000	0.000
4252	4192	4193	4194	3	30.334	0.000	-30.334	-0.000	-0.000	0.000
4258	4201	4193	4194	3	30.334	0.000	-30.334	-0.000	-0.000	0.000
4257	4200	4194	4193	3	30.334	0.000	-30.334	-0.000	-0.000	0.000
4257	4200	4194	4195	3	30.334	0.000	-30.334	-0.000	-0.000	0.000
4253	4195	4194	4200	3	30.334	0.000	-30.334	-0.000	-0.000	0.000
4252	4192	4193	4201	3	30.334	0.000	-30.334	-0.000	-0.000	0.000
4258	4201	4193	4192	3	30.334	0.000	-30.334	-0.000	-0.000	0.000
4251	4191	4192	4193	3	30.334	0.000	-30.334	-0.000	-0.000	0.000
4259	4202	4201	4193	3	30.334	0.000	-30.334	-0.000	-0.000	0.000
4254	4196	4195	4194	3	30.334	0.000	-30.334	-0.000	-0.000	0.000
4256	4199	4200	4194	3	30.334	0.000	-30.334	-0.000	-0.000	0.000
4261	4205	4206	4207	3	30.334	0.000	-30.334	-0.000	-0.000	0.000
4283	4242	4206	4207	3	30.334	0.000	-30.334	-0.000	-0.000	0.000
4268	4228	4229	4230	3	30.334	0.000	-30.334	-0.000	-0.000	0.000
4256	4199	4197	4196	3	30.334	0.000	-30.334	-0.000	-0.000	0.000
4271	4231	4230	4229	3	30.334	0.000	-30.334	-0.000	-0.000	0.000
4283	4242	4243	4203	3	30.334	0.000	-30.334	-0.000	-0.000	0.000
4269	4229	4228	4227	3	30.334	0.000	-30.334	-0.000	-0.000	0.000
4284	4243	4242	4206	3	30.334	0.000	-30.334	-0.000	-0.000	0.000
4270	4230	4229	4228	3	30.334	0.000	-30.334	-0.000	-0.000	0.000
4259	4202	4190	4191	3	30.334	0.000	-30.334	-0.000	-0.000	0.000
4258	4201	4202	4190	3	30.334	0.000	-30.334	-0.000	-0.000	0.000
4283	4242	4206	4205	3	30.334	0.000	-30.334	-0.000	-0.000	0.000
4284	4243	4203	4204	3	30.334	0.000	-30.334	-0.000	-0.000	0.000
4271	4231	4232	4227	3	30.334	0.000	-30.334	-0.000	-0.000	0.000
4268	4228	4227	4232	3	30.334	0.000	-30.334	-0.000	-0.000	0.000
4253	4195	4196	4197	3	30.334	0.000	-30.334	-0.000	-0.000	0.000
4254	4196	4197	4199	3	30.334	0.000	-30.334	-0.000	-0.000	0.000
4251	4191	4190	4202	3	30.334	0.000	-30.334	-0.000	-0.000	0.000
4260	4204	4203	4243	3	30.334	0.000	-30.334	-0.000	-0.000	0.000
4260	4204	4205	4206	3	30.334	0.000	-30.334	-0.000	-0.000	0.000
4257	4200	4199	4197	3	30.334	0.000	-30.334	-0.000	-0.000	0.000
4261	4205	4206	4242	3	30.334	0.000	-30.334	-0.000	-0.000	0.000
4270	4230	4231	4232	3	30.334	0.000	-30.334	-0.000	-0.000	0.000
4272	4232	4231	4230	3	30.334	0.000	-30.334	-0.000	-0.000	0.000
4269	4229	4230	4231	3	30.334	0.000	-30.334	-0.000	-0.000	0.000
4272	4232	4227	4228	3	30.334	0.000	-30.334	-0.000	-0.000	0.000
4252	4192	4191	4190	3	30.334	0.000	-30.334	-0.000	-0.000	0.000
4261	4205	4204	4203	3	30.334	0.000	-30.334	-0.000	-0.000	0.000
4272	4232	4227	4226	3	30.334	0.000	-30.334	-0.000	-0.000	0.000
4268	4228	4227	4226	3	30.334	0.000	-30.334	-0.000	-0.000	0.000
4261	4205	4204	4260	3	30.334	0.000	-30.334	-0.000	-0.000	0.000
4284	4243	4242	4283	3	30.334	0.000	-30.334	-0.000	-0.000	0.000
4270	4230	4229	4269	3	30.334	0.000	-30.334	-0.000	-0.000	0.000
4254	4196	4195	4253	3	30.334	0.000	-30.334	-0.000	-0.000	0.000
4259	4202	4201	4258	3	30.334	0.000	-30.334	-0.000	-0.000	0.000
4257	4200	4199	4256	3	30.334	0.000	-30.334	-0.000	-0.000	0.000
4269	4229	4228	4268	3	30.334	0.000	-30.334	-0.000	-0.000	0.000
4252	4192	4191	4251	3	30.334	0.000	-30.334	-0.000	-0.000	0.000
4271	4231	4230	4270	3	30.334	0.000	-30.334	-0.000	-0.000	0.000
4272	4232	4231	4271	3	30.334	0.000	-30.334	-0.000	-0.000	0.000
4284	4243	4203	4186	3	30.334	0.000	-30.334	-0.000	-0.000	0.000
4260	4204	4203	4186	3	30.334	0.000	-30.334	-0.000	-0.000	0.000
4254	4196	4197	4198	3	0.0	0.0	0.0	-0.0	-0.0	0.0
4256	4199	4197	4198	3	0.0	0.0	0.0	-0.0	-0.0	0.0
4251	4191	4190	4189	3	30.334	0.000	-30.334	-0.000	-0.000	0.000
4259	4202	4190	4189	3	30.334	0.000	-30.334	-0.000	-0.000	0.000
4265	4212	4211	4210	3	58.576	0.000	-58.576	-0.000	-0.000	0.000
4265	4212	4213	4214	3	58.576	0.000	-58.576	-0.000	-0.000	0.000
4267	4214	4213	4212	3	58.576	0.000	-58.576	-0.000	-0.000	0.000
4266	4213	4212	4211	3	58.576	0.000	-58.576	-0.000	-0.000	0.000
4263	4208	4209	4210	3	58.576	0.000	-58.576	-0.000	-0.000	0.000
4262	4207	4208	4209	3	58.576	0.000	-58.576	-0.000	-0.000	0.000
4263	4208	4207	4206	3	58.576	0.000	-58.576	-0.000	-0.000	0.000
4266	4213	4214	4215	3	58.576	0.000	-58.576	-0.000	-0.000	0.000
4265	4212	4211	4237	3	58.576	0.000	-58.576	-0.000	-0.000	0.000
4263	4208	4209	4241	3	58.576	0.000	-58.576	-0.000	-0.000	0.000
4263	4208	4207	4262	3	58.576	0.000	-58.576	-0.000	-0.000	0.000
4266	4213	4212	4265	3	58.576	0.000	-58.576	-0.000	-0.000	0.000
4267	4214	4213	4266	3	58.576	0.000	-58.576	-0.000	-0.000	0.000
4262	4207	4206	4242	3	-0.778	-2.335	0.000	3.113	-0.000	0.000
4262	4207	4206	4205	3	-0.778	-2.335	0.000	3.113	-0.000	0.000
4267	4214	4215	4216	3	58.576	0.000	-58.576	-0.000	-0.000	0.000
4267	4214	4215	4226	3	58.576	0.000	-58.576	-0.000	-0.000	0.000
4281	4241	4209	4208	3	-0.778	-2.335	0.000	3.113	-0.000	0.000
4281	4241	4209	4210	3	-0.778	-2.335	0.000	3.113	-0.000	0.000
4282	4241	4209	4208	3	-0.778	-2.335	0.000	3.113	-0.000	0.000
4274	4237	4211	4212	3	-0.778	-2.335	0.000	3.113	-0.000	0.000
4282	4241	4209	4210	3	-0.778	-2.335	0.000	3.113	-0.000	0.000
4273	4237	4211	4210	3	-0.778	-2.335	0.000	3.113	-0.000	0.000
4274	4237	4211	4210	3	-0.778	-2.335	0.000	3.113	-0.000	0.000
4273	4237	4211	4212	3	-0.778	-2.335	0.000	3.113	-0.000	0.000
4276	4239	4238	4241	3	0.628	1.883	0.000	-2.510	-0.000	0.000
4275	4239	4238	4240	3	0.628	1.883	0.000	-2.510	-0.000	0.000
4275	4239	4238	4237	3	0.628	1.883	0.000	-2.510	-0.000	0.000
4277	4239	4238	4240	3	0.628	1.883	0.000	-2.510	-0.000	0.000
4279	4240	4238	4237	3	0.628	1.883	0.000	-2.510	-0.000	0.000
4278	4240	4238	4237	3	0.628	1.883	0.000	-2.510	-0.000	0.000
4277	4239	4238	4237	3	0.628	1.883	0.000	-2.510	-0.000	0.000
4279	4240	4238	4239	3	0.628	1.883	0.000	-2.510	-0.000	0.000
4276	4239	4238	4237	3	0.628	1.883	0.000	-2.510	-0.000	0.000
4281	4241	4238	4237	3	0.628	1.883	0.000	-2.510	-0.000	0.000
4281	4241	4238	4239	3	0.628	1.883	0.000	-2.510	-0.000	0.000
4274	4237	4238	4239	3	0.628	1.883	0.000	-2.510	-0.000	0.000
4277	4239	4238	4241	3	0.628	1.883	0.000	-2.510	-0.000	0.000
4274	4237	4238	4240	3	0.628	1.883	0.000	-2.510	-0.000	0.000
4282	4241	4238	4239	3	0.628	1.883	0.000	-2.510	-0.000	0.000
4278	4240	4238	4241	3	0.628	1.883	0.000	-2.510	-0.000	0.000
4279	4240	4238	4241	3	0.628	1.883	0.000	-2.510	-0.000	0.000
4280	4240	4238	4237	3	0.628	1.883	0.000	-2.510	-0.000	0.000
4273	4237	4238	4240	3	0.628	1.883	0.000	-2.510	-0.000	0.000
4273	4237	4238	4239	3	0.628	1.883	0.000	-2.510	-0.000	0.000
4278	4240	4238	4239	3	0.628	1.883	0.000	-2.510	-0.000	0.000
4274	4237	4238	4241	3	0.628	1.883	0.000	-2.510	-0.000	0.000
4282	4241	4238	4240	3	0.628	1.883	0.000	-2.510	-0.000	0.000
4276	4239	4238	4240	3	0.628	1.883	0.000	-2.510	-0.000	0.000
4275	4239	4238	4241	3	0.628	1.883	0.000	-2.510	-0.000	0.000
4282	4241	4238	4237	3	0.628	1.883	0.000	-2.510	-0.000	0.000
4273	4237	4238	4241	3	0.628	1.883	0.000	-2.510	-0.000	0.000
4280	4240	4238	4239	3	0.628	1.883	0.000	-2.510	-0.000	0.000
4281	4241	4238	4240	3	0.628	1.883	0.000	-2.510	-0.000	0.000
4280	4240	4238	4241	3	0.628	1.883	0.000	-2.510	-0.000	0.000
4249	4188	4187	4248	3	0.628	1.883	0.000	-2.510	-0.000	0.000
4250	4188	4187	4247	3	0.628	1.883	0.000	-2.510	-0.000	0.000
4249	4188	4187	4247	3	0.628	1.883	0.000	-2.510	-0.000	0.000
4250	4188	4187	4248	3	0.628	1.883	0.000	-2.510	-0.000	0.000
4250	4188	4187	4186	3	-4.096	5.088	2.966	-3.958	-0.000	0.000
4249	4188	4187	4186	3	-4.096	5.088	2.966	-3.958	-0.000	0.000
4248	4187	4188	4189	3	0.979	2.937	0.000	-3.916	-0.000	0.000
4247	4187	4188	4189	3	0.979	2.937	0.000	-3.916	-0.000	0.000
4248	4187	4186	4203	3	1.172	3.515	0.000	-4.686	-0.000	0.000
4244	4185	4186	4203	3	1.172	3.515	0.000	-4.686	-0.000	0.000
4247	4187	4186	4203	3	1.172	3.515	0.000	-4.686	-0.000	0.000
4245	4185	4186	4203	3	1.172	3.515	0.000	-4.686	-0.000	0.000
4246	4185	4186	4203	3	1.172	3.515	0.000	-4.686	-0.000	0.000
4247	4187	4186	4185	3	1.172	3.515	0.000	-4.686	-0.000	0.000
4245	4185	4186	4187	3	1.172	3.515	0.000	-4.686	-0.000	0.000
4248	4187	4186	4185	3	1.172	3.515	0.000	-4.686	-0.000	0.000
4246	4185	4186	4187	3	1.172	3.515	0.000	-4.686	-0.000	0.000
4244	4185	4186	4187	3	1.172	3.515	0.000	-4.686	-0.000	0.000
4249	4188	4189	4190	3	1.590	4.770	0.000	-6.360	-0.000	0.000
4250	4188	4189	4190	3	1.590	4.770	0.000	-6.360	-0.000	0.000
4255	4198	4197	4199	3	0.0	0.0	0.0	-0.0	-0.0	0.0
4255	4198	4197	4196	3	0.0	0.0	0.0	-0.0	-0.0	0.0
4198	4197	4196	4195	3	0.0	0.0	0.0	-0.0	-0.0	0.0
4225	4226	4215	4214	3	2.874	0.582	2.092	-5.548	-0.000	0.000
4225	4226	4215	4216	3	1.046	-1.046	0.000	-0.000	-0.000	0.000
4189	4188	4187	4186	3	16.736	-16.736	0.000	-0.000	-0.000	0.000
4225	4219	4216	4215	3	1.046	-1.046	0.000	-0.000	-0.000	0.000
4225	4219	4216	4217	3	9.079	0.000	-9.079	-0.000	-0.000	0.000
4294	4293	4292	4291	3	30.334	0.000	-30.334	-0.000	-0.000	0.000
4293	4301	4302	4290	3	30.334	0.000	-30.334	-0.000	-0.000	0.000
4293	4292	4291	4290	3	30.334	0.000	-30.334	-0.000	-0.000	0.000
4314	4313	4312	4311	3	21.738	2.408	-16.966	-7.180	-0.000	0.000
4310	4309	4308	4307	3	21.738	2.408	-16.966	-7.180	-0.000	0.000
4311	4310	4309	4308	3	21.738	2.408	-16.966	-7.180	-0.000	0.000
4312	4311	4310	4309	3	21.738	2.408	-16.966	-7.180	-0.000	0.000
4313	4312	4311	4310	3	21.738	2.408	-16.966	-7.180	-0.000	0.000
4309	4308	4307	4306	3	58.576	0.000	-58.576	-0.000	-0.000	0.000
4308	4307	4306	4305	3	16.027	-4.391	-14.029	2.393	-0.000	0.000
4307	4306	4305	4304	3	30.334	0.000	-30.334	-0.000	-0.000	0.000
4316	4315	4314	4313	3	58.576	0.000	-58.576	-0.000	-0.000	0.000
4301	4293	4294	4300	3	9.079	0.000	-9.079	-0.000	-0.000	0.000
4300	4294	4293	4292	3	9.079	0.000	-9.079	-0.000	-0.000	0.000
4301	4293	4294	4295	3	9.079	0.000	-9.079	-0.000	-0.000	0.000
4295	4294	4293	4292	3	9.079	0.000	-9.079	-0.000	-0.000	0.000
4300	4294	4295	4296	3	30.334	0.000	-30.334	-0.000	-0.000	0.000
4301	4293	4292	4291	3	30.334	0.000	-30.334	-0.000	-0.000	0.000
4299	4300	4294	4293	3	30.334	0.000	-30.334	-0.000	-0.000	0.000
4302	4301	4293	4294	3	30.334	0.000	-30.334	-0.000	-0.000	0.000
4296	4295	4294	4293	3	30.334	0.000	-30.334	-0.000	-0.000	0.000
4299	4300	4294	4295	3	30.334	0.000	-30.334	-0.000	-0.000	0.000
4302	4301	4293	4292	3	30.334	0.000	-30.334	-0.000	-0.000	0.000
4342	4306	4307	4308	3	16.027	-4.391	-14.029	2.393	-0.000	0.000
4297	4299	4300	4294	3	30.334	0.000	-30.334	-0.000	-0.000	0.000
4297	4296	4295	4294	3	30.334	0.000	-30.334	-0.000	-0.000	0.000
4343	4342	4306	4307	3	30.334	0.000	-30.334	-0.000	-0.000	0.000
4332	4327	4328	4329	3	30.334	0.000	-30.334	-0.000	-0.000	0.000
4343	4342	4306	4305	3	30.334	0.000	-30.334	-0.000	-0.000	0.000
4302	4290	4291	4292	3	30.334	0.000	-30.334	-0.000	-0.000	0.000
4342	4343	4303	4304	3	30.334	0.000	-30.334	-0.000	-0.000	0.000
4332	4331	4330	4329	3	30.334	0.000	-30.334	-0.000	-0.000	0.000
4331	4330	4329	4328	3	30.334	0.000	-30.334	-0.000	-0.000	0.000
4330	4329	4328	4327	3	30.334	0.000	-30.334	-0.000	-0.000	0.000
4306	4305	4304	4303	3	30.334	0.000	-30.334	-0.000	-0.000	0.000
4306	4342	4343	4303	3	30.334	0.000	-30.334	-0.000	-0.000	0.000
4343	4303	4304	4305	3	30.334	0.000	-30.334	-0.000	-0.000	0.000
4342	4306	4305	4304	3	30.334	0.000	-30.334	-0.000	-0.000	0.000
4331	4332	4327	4328	3	30.334	0.000	-30.334	-0.000	-0.000	0.000
4300	4299	4297	4296	3	30.334	0.000	-30.334	-0.000	-0.000	0.000
4301	4302	4290	4291	3	30.334	0.000	-30.334	-0.000	-0.000	0.000
4330	4331	4332	4327	3	30.334	0.000	-30.334	-0.000	-0.000	0.000
4299	4297	4296	4295	3	30.334	0.000	-30.334	-0.000	-0.000	0.000
4331	4332	4327	4326	3	30.334	0.000	-30.334	-0.000	-0.000	0.000
4329	4328	4327	4326	3	30.334	0.000	-30.334	-0.000	-0.000	0.000
4342	4343	4303	4286	3	30.334	0.000	-30.334	-0.000	-0.000	0.000
4305	4304	4303	4286	3	30.334	0.000	-30.334	-0.000	-0.000	0.000
4300	4299	4297	4298	3	0.0	0.0	0.0	-0.0	-0.0	0.0
4292	4291	4290	4289	3	30.334	0.000	-30.334	-0.000	-0.000	0.000
4301	4302	4290	4289	3	30.334	0.000	-30.334	-0.000	-0.000	0.000
4332	4327	4326	4315	3	0.000	0.000	0.000	-0.000	-0.000	0.000
4328	4327	4326	4315	3	0.000	0.000	0.000	-0.000	-0.000	0.000
4332	4327	4326	4325	3	0.000	0.000	0.000	-0.000	-0.000	0.000
4328	4327	4326	4325	3	0.000	0.000	0.000	-0.000	-0.000	0.000
4343	4303	4286	4287	3	5.184	35.932	-14.355	-26.761	-0.000	0.000
4304	4303	4286	4287	3	5.184	35.932	-14.355	-26.761	-0.000	0.000
4304	4303	4286	4285	3	5.184	35.932	-14.355	-26.761	-0.000	0.000
4343	4303	4286	4285	3	5.184	35.932	-14.355	-26.761	-0.000	0.000
4291	4290	4289	4288	3	12.552	0.000	-12.552	-0.000	-0.000	0.000
4302	4290	4289	4288	3	12.552	0.000	-12.552	-0.000	-0.000	0.000
4327	4326	4315	4314	3	6.322	-2.485	0.707	-4.544	-0.000	0.000
4327	4326	4315	4316	3	0.527	-6.397	-1.695	7.565	-0.000	0.000
4327	4326	4325	4319	3	1.715	2.845	1.046	-5.607	-0.000	0.000
4303	4286	4287	4288	3	1.789	3.492	0.536	-5.816	-0.000	0.000
4290	4289	4288	4287	3	1.715	2.845	1.046	-5.607	-0.000	0.000
4333	4326	4327	4328	3	0.000	0.000	0.000	-0.000	-0.000	0.000
4333	4326	4327	4332	3	0.000	0.000	0.000	-0.000	-0.000	0.000
4333	4326	4315	4314	3	6.322	-2.485	0.707	-4.544	-0.000	0.000
4333	4326	4315	4316	3	0.527	-6.397	-1.695	7.565	-0.000	0.000
4333	4326	4325	4319	3	1.715	2.845	1.046	-5.607	-0.000	0.000
4315	4314	4313	4312	3	21.738	2.408	-16.966	-7.180	-0.000	0.000
4320	4319	4316	4315	3	21.738	2.408	-16.966	-7.180	-0.000	0.000
4320	4319	4316	4317	3	-0.778	-2.335	0.000	3.113	-0.000	0.000
4341	4309	4308	4307	3	58.576	0.000	-58.576	-0.000	-0.000	0.000
4337	4311	4310	4309	3	58.576	0.000	-58.576	-0.000	-0.000	0.000
4341	4309	4310	4311	3	58.576	0.000	-58.576	-0.000	-0.000	0.000
4337	4311	4312	4313	3	58.576	0.000	-58.576	-0.000	-0.000	0.000
4326	4315	4314	4313	3	-0.778	-2.335	0.000	3.113	-0.000	0.000
4326	4315	4316	4319	3	58.576	0.000	-58.576	-0.000	-0.000	0.000
4326	4315	4316	4317	3	58.576	0.000	-58.576	-0.000	-0.000	0.000
4338	4341	4309	4308	3	0.527	-6.397	-1.695	7.565	-0.000	0.000
4338	4337	4311	4312	3	0.527	-6.397	-1.695	7.565	-0.000	0.000
4338	4337	4311	4310	3	0.527	-6.397	-1.695	7.565	-0.000	0.000
4338	4341	4309	4310	3	0.527	-6.397	-1.695	7.565	-0.000	0.000
4341	4338	4337	4311	3	2.301	-1.464	0.837	-1.674	-0.000	0.000
4340	4338	4341	4309	3	2.301	-1.464	0.837	-1.674	-0.000	0.000
4337	4338	4341	4309	3	2.301	-1.464	0.837	-1.674	-0.000	0.000
4339	4338	4341	4309	3	2.301	-1.464	0.837	-1.674	-0.000	0.000
4340	4338	4337	4311	3	2.301	-1.464	0.837	-1.674	-0.000	0.000
4339	4338	4337	4311	3	2.301	-1.464	0.837	-1.674	-0.000	0.000
4288	4287	4286	4285	3	1.789	3.492	0.536	-5.816	-0.000	0.000
4326	4325	4319	4316	3	30.334	0.000	-30.334	-0.000	-0.000	0.000
4326	4325	4319	4320	3	30.334	0.000	-30.334	-0.000	-0.000	0.000
4319	4316	4315	4314	3	58.576	0.000	-58.576	-0.000	-0.000	0.000
4319	4325	4326	4315	3	1.715	2.845	1.046	-5.607	-0.000	0.000
4317	4316	4315	4314	3	58.576	0.000	-58.576	-0.000	-0.000	0.000
4321	4320	4319	4316	3	58.576	0.000	-58.576	-0.000	-0.000	0.000
4323	4320	4319	4316	3	58.576	0.000	-58.576	-0.000	-0.000	0.000
4334	4333	4326	4327	3	0.000	0.000	0.000	-0.000	-0.000	0.000
4335	4333	4326	4327	3	0.000	0.000	0.000	-0.000	-0.000	0.000
4336	4333	4326	4327	3	0.000	0.000	0.000	-0.000	-0.000	0.000
4335	4333	4326	4315	3	0.000	0.000	0.000	-0.000	-0.000	0.000
4334	4333	4326	4315	3	0.000	0.000	0.000	-0.000	-0.000	0.000
4336	4333	4326	4315	3	0.000	0.000	0.000	-0.000	-0.000	0.000
4335	4333	4326	4325	3	1.130	3.389	0.000	-4.519	-0.000	0.000
4336	4333	4326	4325	3	1.130	3.389	0.000	-4.519	-0.000	0.000
4334	4333	4326	4325	3	1.130	3.389	0.000	-4.519	-0.000	0.000
4364	4310	4309	4308	3	58.576	0.000	-58.576	-0.000	-0.000	0.000
4364	4310	4311	4312	3	58.576	0.000	-58.576	-0.000	-0.000	0.000
4364	4310	4311	4337	3	58.576	0.000	-58.576	-0.000	-0.000	0.000
4364	4310	4309	4341	3	58.576	0.000	-58.576	-0.000	-0.000	0.000
4353	4295	4294	4293	3	30.334	0.000	-30.334	-0.000	-0.000	0.000
4352	4292	4293	4294	3	30.334	0.000	-30.334	-0.000	-0.000	0.000
4358	4301	4293	4294	3	30.334	0.000	-30.334	-0.000	-0.000	0.000
4357	4300	4294	4293	3	30.334	0.000	-30.334	-0.000	-0.000	0.000
4357	4300	4294	4295	3	30.334	0.000	-30.334	-0.000	-0.000	0.000
4353	4295	4294	4300	3	30.334	0.000	-30.334	-0.000	-0.000	0.000
4352	4292	4293	4301	3	30.334	0.000	-30.334	-0.000	-0.000	0.000
4358	4301	4293	4292	3	30.334	0.000	-30.334	-0.000	-0.000	0.000
4351	4291	4292	4293	3	30.334	0.000	-30.334	-0.000	-0.000	0.000
4359	4302	4301	4293	3	30.334	0.000	-30.334	-0.000	-0.000	0.000
4354	4296	4295	4294	3	30.334	0.000	-30.334	-0.000	-0.000	0.000
4356	4299	4300	4294	3	30.334	0.000	-30.334	-0.000	-0.000	0.000
4361	4305	4306	4307	3	30.334	0.000	-30.334	-0.000	-0.000	0.000
4383	4342	4306	4307	3	30.334	0.000	-30.334	-0.000	-0.000	0.000
4368	4328	4329	4330	3	30.334	0.000	-30.334	-0.000	-0.000	0.000
4356	4299	4297	4296	3	30.334	0.000	-30.334	-0.000	-0.000	0.000
4371	4331	4330	4329	3	30.334	0.000	-30.334	-0.000	-0.000	0.000
4383	4342	4343	4303	3	30.334	0.000	-30.334	-0.000	-0.000	0.000
4369	4329	4328	4327	3	30.334	0.000	-30.334	-0.000	-0.000	0.000
4384	4343	4342	4306	3	30.334	0.000	-30.334	-0.000	-0.000	0.000
4370	4330	4329	4328	3	30.334	0.000	-30.334	-0.000	-0.000	0.000
4359	4302	4290	4291	3	30.334	0.000	-30.334	-0.000	-0.000	0.000
4358	4301	4302	4290	3	30.334	0.000	-30.334	-0.000	-0.000	0.000
4383	4342	4306	4305	3	30.334	0.000	-30.334	-0.000	-0.000	0.000
4384	4343	4303	4304	3	30.334	0.000	-30.334	-0.000	-0.000	0.000
4371	4331	4332	4327	3	30.334	0.000	-30.334	-0.000	-0.000	0.000
4368	4328	4327	4332	3	30.334	0.000	-30.334	-0.000	-0.000	0.000
4353	4295	4296	4297	3	30.334	0.000	-30.334	-0.000	-0.000	0.000
4354	4296	4297	4299	3	30.334	0.000	-30.334	-0.000	-0.000	0.000
4351	4291	4290	4302	3	30.334	0.000	-30.334	-0.000	-0.000	0.000
4360	4304	4303	4343	3	30.334	0.000	-30.334	-0.000	-0.000	0.000
4360	4304	4305	4306	3	30.334	0.000	-30.334	-0.000	-0.000	0.000
4357	4300	4299	4297	3	30.334	0.000	-30.334	-0.000	-0.000	0.000
4361	4305	4306	4342	3	30.334	0.000	-30.334	-0.000	-0.000	0.000
4370	4330	4331	4332	3	30.334	0.000	-30.334	-0.000	-0.000	0.000
4372	4332	4331	4330	3	30.334	0.000	-30.334	-0.000	-0.000	0.000
4369	4329	4330	4331	3	30.334	0.000	-30.334	-0.000	-0.000	0.000
4372	4332	4327	4328	3	30.334	0.000	-30.334	-0.000	-0.000	0.000
4352	4292	4291	4290	3	30.334	0.000	-30.334	-0.000	-0.000	0.000
4361	4305	4304	4303	3	30.334	0.000	-30.334	-0.000	-0.000	0.000
4372	4332	4327	4326	3	30.334	0.000	-30.334	-0.000	-0.000	0.000
4368	4328	4327	4326	3	30.334	0.000	-30.334	-0.000	-0.000	0.000
4361	4305	4304	4360	3	30.334	0.000	-30.334	-0.000	-0.000	0.000
4384	4343	4342	4383	3	30.334	0.000	-30.334	-0.000	-0.000	0.000
4370	4330	4329	4369	3	30.334	0.000	-30.334	-0.000	-0.000	0.000
4354	4296	4295	4353	3	30.334	0.000	-30.334	-0.000	-0.000	0.000
4359	4302	4301	4358	3	30.334	0.000	-30.334	-0.000	-0.000	0.000
4357	4300	4299	4356	3	30.334	0.000	-30.334	-0.000	-0.000	0.000
4369	4329	4328	4368	3	30.334	0.000	-30.334	-0.000	-0.000	0.000
4352	4292	4291	4351	3	30.334	0.000	-30.334	-0.000	-0.000	0.000
4371	4331	4330	4370	3	30.334	0.000	-30.334	-0.000	-0.000	0.000
4372	4332	4331	4371	3	30.334	0.000	-30.334	-0.000	-0.000	0.000
4384	4343	4303	4286	3	30.334	0.000	-30.334	-0.000	-0.000	0.000
4360	4304	4303	4286	3	30.334	0.000	-30.334	-0.000	-0.000	0.000
4354	4296	4297	4298	3	0.0	0.0	0.0	-0.0	-0.0	0.0
4356	4299	4297	4298	3	0.0	0.0	0.0	-0.0	-0.0	0.0
4351	4291	4290	4289	3	30.334	0.000	-30.334	-0.000	-0.000	0.000
4359	4302	4290	4289	3	30.334	0.000	-30.334	-0.000	-0.000	0.000
4365	4312	4311	4310	3	58.576	0.000	-58.576	-0.000	-0.000	0.000
4365	4312	4313	4314	3	58.576	0.000	-58.576	-0.000	-0.000	0.000
4367	4314	4313	4312	3	58.576	0.000	-58.576	-0.000	-0.000	0.000
4366	4313	4312	4311	3	58.576	0.000	-58.576	-0.000	-0.000	0.000
4363	4308	4309	4310	3	58.576	0.000	-58.576	-0.000	-0.000	0.000
4362	4307	4308	4309	3	58.576	0.000	-58.576	-0.000	-0.000	0.000
4363	4308	4307	4306	3	58.576	0.000	-58.576	-0.000	-0.000	0.000
4366	4313	4314	4315	3	58.576	0.000	-58.576	-0.000	-0.000	0.000
4365	4312	4311	4337	3	58.576	0.000	-58.576	-0.000	-0.000	0.000
4363	4308	4309	4341	3	58.576	0.000	-58.576	-0.000	-0.000	0.000
4363	4308	4307	4362	3	58.576	0.000	-58.576	-0.000	-0.000	0.000
4366	4313	4312	4365	3	58.576	0.000	-58.576	-0.000	-0.000	0.000
4367	4314	4313	4366	3	58.576	0.000	-58.576	-0.000	-0.000	0.000
4362	4307	4306	4342	3	-0.778	-2.335	0.000	3.113	-0.000	0.000
4362	4307	4306	4305	3	-0.778	-2.335	0.000	3.113	-0.000	0.000
4367	4314	4315	4316	3	58.576	0.000	-58.576	-0.000	-0.000	0.000
4367	4314	4315	4326	3	58.576	0.000	-58.576	-0.000	-0.000	0.000
4381	4341	4309	4308	3	-0.778	-2.335	0.000	3.113	-0.000	0.000
4381	4341	4309	4310	3	-0.778	-2.335	0.000	3.113	-0.000	0.000
4382	4341	4309	4308	3	-0.778	-2.335	0.000	3.113	-0.000	0.000
4374	4337	4311	4312	3	-0.778	-2.335	0.000	3.113	-0.000	0.000
4382	4341	4309	4310	3	-0.778	-2.335	0.000	3.113	-0.000	0.000
4373	4337	4311	4310	3	-0.778	-2.335	0.000	3.113	-0.000	0.000
4374	4337	4311	4310	3	-0.778	-2.335	0.000	3.113	-0.000	0.000
4373	4337	4311	4312	3	-0.778	-2.335	0.000	3.113	-0.000	0.000
4376	4339	4338	4341	3	0.628	1.883	0.000	-2.510	-0.000	0.000
4375	4339	4338	4340	3	0.628	1.883	0.000	-2.510	-0.000	0.000
4375	4339	4338	4337	3	0.628	1.883	0.000	-2.510	-0.000	0.000
4377	4339	4338	4340	3	0.628	1.883	0.000	-2.510	-0.000	0.000
4379	4340	4338	4337	3	0.628	1.883	0.000	-2.510	-0.000	0.000
4378	4340	4338	4337	3	0.628	1.883	0.000	-2.510	-0.000	0.000
4377	4339	4338	4337	3	0.628	1.883	0.000	-2.510	-0.000	0.000
4379	4340	4338	4339	3	0.628	1.883	0.000	-2.510	-0.000	0.000
4376	4339	4338	4337	3	0.628	1.883	0.000	-2.510	-0.000	0.000
4381	4341	4338	4337	3	0.628	1.883	0.000	-2.510	-0.000	0.000
4381	4341	4338	4339	3	0.628	1.883	0.000	-2.510	-0.000	0.000
4374	4337	4338	4339	3	0.628	1.883	0.000	-2.510	-0.000	0.000
4377	4339	4338	4341	3	0.628	1.883	0.000	-2.510	-0.000	0.000
4374	4337	4338	4340	3	0.628	1.883	0.000	-2.510	-0.000	0.000
4382	4341	4338	4339	3	0.628	1.883	0.000	-2.510	-0.000	0.000
4378	4340	4338	4341	3	0.628	1.883	0.000	-2.510	-0.000	0.000
4379	4340	4338	4341	3	0.628	1.883	0.000	-2.510	-0.000	0.000
4380	4340	4338	4337	3	0.628	1.883	0.000	-2.510	-0.000	0.000
4373	4337	4338	4340	3	0.628	1.883	0.000	-2.510	-0.000	0.000
4373	4337	4338	4339	3	0.628	1.883	0.000	-2.510	-0.000	0.000
4378	4340	4338	4339	3	0.628	1.883	0.000	-2.510	-0.000	0.000
4374	4337	4338	4341	3	0.628	1.883	0.000	-2.510	-0.000	0.000
4382	4341	4338	4340	3	0.628	1.883	0.000	-2.510	-0.000	0.000
4376	4339	4338	4340	3	0.628	1.883	0.000	-2.510	-0.000	0.000
4375	4339	4338	4341	3	0.628	1.883	0.000	-2.510	-0.000	0.000
4382	4341	4338	4337	3	0.628	1.883	0.000	-2.510	-0.000	0.000
4373	4337	4338	4341	3	0.628	1.883	0.000	-2.510	-0.000	0.000
4380	4340	4338	4339	3	0.628	1.883	0.000	-2.510	-0.000	0.000
4381	4341	4338	4340	3	0.628	1.883	0.000	-2.510	-0.000	0.000
4380	4340	4338	4341	3	0.628	1.883	0.000	-2.510	-0.000	0.000
4349	4288	4287	4348	3	0.628	1.883	0.000	-2.510	-0.000	0.000
4350	4288	4287	4347	3	0.628	1.883	0.000	-2.510	-0.000	0.000
4349	4288	4287	4347	3	0.628	1.883	0.000	-2.510	-0.000	0.000
4350	4288	4287	4348	3	0.628	1.883	0.000	-2.510	-0.000	0.000
4350	4288	4287	4286	3	-4.096	5.088	2.966	-3.958	-0.000	0.000
4349	4288	4287	4286	3	-4.096	5.088	2.966	-3.958	-0.000	0.000
4348	4287	4288	4289	3	0.979	2.937	0.000	-3.916	-0.000	0.000
4347	4287	4288	4289	3	0.979	2.937	0.000	-3.916	-0.000	0.000
4348	4287	4286	4303	3	1.172	3.515	0.000	-4.686	-0.000	0.000
4344	4285	4286	4303	3	1.172	3.515	0.000	-4.686	-0.000	0.000
4347	4287	4286	4303	3	1.172	3.515	0.000	-4.686	-0.000	0.000
4345	4285	4286	4303	3	1.172	3.515	0.000	-4.686	-0.000	0.000
4346	4285	4286	4303	3	1.172	3.515	0.000	-4.686	-0.000	0.000
4347	4287	4286	4285	3	1.172	3.515	0.000	-4.686	-0.000	0.000
4345	4285	4286	4287	3	1.172	3.515	0.000	-4.686	-0.000	0.000
4348	4287	4286	4285	3	1.172	3.515	0.000	-4.686	-0.000	0.000
4346	4285	4286	4287	3	1.172	3.515	0.000	-4.686	-0.000	0.000
4344	4285	4286	4287	3	1.172	3.515	0.000	-4.686	-0.000	0.000
4349	4288	4289	4290	3	1.590	4.770	0.000	-6.360	-0.000	0.000
4350	4288	4289	4290	3	1.590	4.770	0.000	-6.360	-0.000	0.000
4355	4298	4297	4299	3	0.0	0.0	0.0	-0.0	-0.0	0.0
4355	4298	4297	4296	3	0.0	0.0	0.0	-0.0	-0.0	0.0
4298	4297	4296	4295	3	0.0	0.0	0.0	-0.0	-0.0	0.0
4325	4326	4315	4314	3	2.874	0.582	2.092	-5.548	-0.000	0.000
4325	4326	4315	4316	3	1.046	-1.046	0.000	-0.000	-0.000	0.000
4289	4288	4287	4286	3	16.736	-16.736	0.000	-0.000	-0.000	0.000
4325	4319	4316	4315	3	1.046	-1.046	0.000	-0.000	-0.000	0.000
4325	4319	4316	4317	3	9.079	0.000	-9.079	-0.000	-0.000	0.000
4394	4393	4392	4391	3	30.334	0.000	-30.334	-0.000	-0.000	0.000
4393	4401	4402	4390	3	30.334	0.000	-30.334	-0.000	-0.000	0.000
4393	4392	4391	4390	3	30.334	0.000	-30.334	-0.000	-0.000	0.000
4414	4413	4412	4411	3	21.738	2.408	-16.966	-7.180	-0.000	0.000
4410	4409	4408	4407	3	21.738	2.408	-16.966	-7.180	-0.000	0.000
4411	4410	4409	4408	3	21.738	2.408	-16.966	-7.180	-0.000	0.000
4412	4411	4410	4409	3	21.738	2.408	-16.966	-7.180	-0.000	0.000
4413	4412	4411	4410	3	21.738	2.408	-16.966	-7.180	-0.000	0.000
4409	4408	4407	4406	3	58.576	0.000	-58.576	-0.000	-0.000	0.000
4408	4407	4406	4405	3	16.027	-4.391	-14.029	2.393	-0.000	0.000
4407	4406	4405	4404	3	30.334	0.000	-30.334	-0.000	-0.000	0.000
4416	4415	4414	4413	3	58.576	0.000	-58.576	-0.000	-0.000	0.000
4401	4393	4394	4400	3	9.079	0.000	-9.079	-0.000	-0.000	0.000
4400	4394	4393	4392	3	9.079	0.000	-9.079	-0.000	-0.000	0.000
4401	4393	4394	4395	3	9.079	0.000	-9.079	-0.000	-0.000	0.000
4395	4394	4393	4392	3	9.079	0.000	-9.079	-0.000	-0.000	0.000
4400	4394	4395	4396	3	30.334	0.000	-30.334	-0.000	-0.000	0.000
4401	4393	4392	4391	3	30.334	0.000	-30.334	-0.000	-0.000	0.000
4399	4400	4394	4393	3	30.334	0.000	-30.334	-0.000	-0.000	0.000
4402	4401	4393	4394	3	30.334	0.000	-30.334	-0.000	-0.000	0.000
4396	4395	4394	4393	3	30.334	0.000	-30.334	-0.000	-0.000	0.000
4399	4400	4394	4395	3	30.334	0.000	-30.334	-0.000	-0.000	0.000
4402	4401	4393	4392	3	30.334	0.000	-30.334	-0.000	-0.000	0.000
4442	4406	4407	4408	3	16.027	-4.391	-14.029	2.393	-0.000	0.000
4397	4399	4400	4394	3	30.334	0.000	-30.334	-0.000	-0.000	0.000
4397	4396	4395	4394	3	30.334	0.000	-30.334	-0.000	-0.000	0.000
4443	4442	4406	4407	3	30.334	0.000	-30.334	-0.000	-0.000	0.000
4432	4427	4428	4429	3	30.334	0.000	-30.334	-0.000	-0.000	0.000
4443	4442	4406	4405	3	30.334	0.000	-30.334	-0.000	-0.000	0.000
4402	4390	4391	4392	3	30.334	0.000	-30.334	-0.000	-0.000	0.000
4442	4443	4403	4404	3	30.334	0.000	-30.334	-0.000	-0.000	0.000
4432	4431	4430	4429	3	30.334	0.000	-30.334	-0.000	-0.000	0.000
4431	4430	4429	4428	3	30.334	0.000	-30.334	-0.000	-0.000	0.000
4430	4429	4428	4427	3	30.334	0.000	-30.334	-0.000	-0.000	0.000
4406	4405	4404	4403	3	30.334	0.000	-30.334	-0.000	-0.000	0.000
4406	4442	4443	4403	3	30.334	0.000	-30.334	-0.000	-0.000	0.000
4443	4403	4404	4405	3	30.334	0.000	-30.334	-0.000	-0.000	0.000
4442	4406	4405	4404	3	30.334	0.000	-30.334	-0.000	-0.000	0.000
4431	4432	4427	4428	3	30.334	0.000	-30.334	-0.000	-0.000	0.000
4400	4399	4397	4396	3	30.334	0.000	-30.334	-0.000	-0.000	0.000
4401	4402	4390	4391	3	30.334	0.000	-30.334	-0.000	-0.000	0.000
4430	4431	4432	4427	3	30.334	0.000	-30.334	-0.000	-0.000	0.000
4399	4397	4396	4395	3	30.334	0.000	-30.334	-0.000	-0.000	0.000
4431	4432	4427	4426	3	30.334	0.000	-30.334	-0.000	-0.000	0.000
4429	4428	4427	4426	3	30.334	0.000	-30.334	-0.000	-0.000	0.000
4442	4443	4403	4386	3	30.334	0.000	-30.334	-0.000	-0.000	0.000
4405	4404	4403	4386	3	30.334	0.000	-30.334	-0.000	-0.000	0.000
4400	4399	4397	4398	3	0.0	0.0	0.0	-0.0	-0.0	0.0
4392	4391	4390	4389	3	30.334	0.000	-30.334	-0.000	-0.000	0.000
4401	4402	4390	4389	3	30.334	0.000	-30.334	-0.000	-0.000	0.000
4432	4427	4426	4415	3	0.000	0.000	0.000	-0.000	-0.000	0.000
4428	4427	4426	4415	3	0.000	0.000	0.000	-0.000	-0.000	0.000
4432	4427	4426	4425	3	0.000	0.000	0.000	-0.000	-0.000	0.000
4428	4427	4426	4425	3	0.000	0.000	0.000	-0.000	-0.000	0.000
4443	4403	4386	4387	3	5.184	35.932	-14.355	-26.761	-0.000	0.000
4404	4403	4386	4387	3	5.184	35.932	-14.355	-26.761	-0.000	0.000
4404	4403	4386	4385	3	5.184	35.932	-14.355	-26.761	-0.000	0.000
4443	4403	4386	4385	3	5.184	35.932	-14.355	-26.761	-0.000	0.000
4391	4390	4389	4388	3	12.552	0.000	-12.552	-0.000	-0.000	0.000
4402	4390	4389	4388	3	12.552	0.000	-12.552	-0.000	-0.000	0.000
4427	4426	4415	4414	3	6.322	-2.485	0.707	-4.544	-0.000	0.000
4427	4426	4415	4416	3	0.527	-6.397	-1.695	7.565	-0.000	0.000
4427	4426	4425	4419	3	1.715	2.845	1.046	-5.607	-0.000	0.000
4403	4386	4387	4388	3	1.789	3.492	0.536	-5.816	-0.000	0.000
4390	4389	4388	4387	3	1.715	2.845	1.046	-5.607	-0.000	0.000
4433	4426	4427	4428	3	0.000	0.000	0.000	-0.000	-0.000	0.000
4433	4426	4427	4432	3	0.000	0.000	0.000	-0.000	-0.000	0.000
4433	4426	4415	4414	3	6.322	-2.485	0.707	-4.544	-0.000	0.000
4433	4426	4415	4416	3	0.527	-6.397	-1.695	7.565	-0.000	0.000
4433	4426	4425	4419	3	1.715	2.845	1.046	-5.607	-0.000	0.000
4415	4414	4413	4412	3	21.738	2.408	-16.966	-7.180	-0.000	0.000
4420	4419	4416	4415	3	21.738	2.408	-16.966	-7.180	-0.000	0.000
4420	4419	4416	4417	3	-0.778	-2.335	0.000	3.113	-0.000	0.000
4441	4409	4408	4407	3	58.576	0.000	-58.576	-0.000	-0.000	0.000
4437	4411	4410	4409	3	58.576	0.000	-58.576	-0.000	-0.000	0.000
4441	4409	4410	4411	3	58.576	0.000	-58.576	-0.000	-0.000	0.000
4437	4411	4412	4413	3	58.576	0.000	-58.576	-0.000	-0.000	0.000
4426	4415	4414	4413	3	-0.778	-2.335	0.000	3.113	-0.000	0.000
4426	4415	4416	4419	3	58.576	0.000	-58.576	-0.000	-0.000	0.000
4426	4415	4416	4417	3	58.576	0.000	-58.576	-0.000	-0.000	0.000
4438	4441	4409	4408	3	0.527	-6.397	-1.695	7.565	-0.000	0.000
4438	4437	4411	4412	3	0.527	-6.397	-1.695	7.565	-0.000	0.000
4438	4437	4411	4410	3	0.527	-6.397	-1.695	7.565	-0.000	0.000
4438	4441	4409	4410	3	0.527	-6.397	-1.695	7.565	-0.000	0.000
4441	4438	4437	4411	3	2.301	-1.464	0.837	-1.674	-0.000	0.000
4440	4438	4441	4409	3	2.301	-1.464	0.837	-1.674	-0.000	0.000
4437	4438	4441	4409	3	2.301	-1.464	0.837	-1.674	-0.000	0.000
4439	4438	4441	4409	3	2.301	-1.464	0.837	-1.674	-0.000	0.000
4440	4438	4437	4411	3	2.301	-1.464	0.837	-1.674	-0.000	0.000
4439	4438	4437	4411	3	2.301	-1.464	0.837	-1.674	-0.000	0.000
4388	4387	4386	4385	3	1.789	3.492	0.536	-5.816	-0.000	0.000
4426	4425	4419	4416	3	30.334	0.000	-30.334	-0.000	-0.000	0.000
4426	4425	4419	4420	3	30.334	0.000	-30.334	-0.000	-0.000	0.000
4419	4416	4415	4414	3	58.576	0.000	-58.576	-0.000	-0.000	0.000
4419	4425	4426	4415	3	1.715	2.845	1.046	-5.607	-0.000	0.000
4417	4416	4415	4414	3	58.576	0.000	-58.576	-0.000	-0.000	0.000
4421	4420	4419	4416	3	58.576	0.000	-58.576	-0.000	-0.000	0.000
4423	4420	4419	4416	3	58.576	0.000	-58.576	-0.000	-0.000	0.000
4434	4433	4426	4427	3	0.000	0.000	0.000	-0.000	-0.000	0.000
4435	4433	4426	4427	3	0.000	0.000	0.000	-0.000	-0.000	0.000
4436	4433	4426	4427	3	0.000	0.000	0.000	-0.000	-0.000	0.000
4435	4433	4426	4415	3	0.000	0.000	0.000	-0.000	-0.000	0.000
4434	4433	4426	4415	3	0.000	0.000	0.000	-0.000	-0.000	0.000
4436	4433	4426	4415	3	0.000	0.000	0.000	-0.000	-0.000	0.000
4435	4433	4426	4425	3	1.130	3.389	0.000	-4.519	-0.000	0.000
4436	4433	4426	4425	3	1.130	3.389	0.000	-4.519	-0.000	0.000
4434	4433	4426	4425	3	1.130	3.389	0.000	-4.519	-0.000	0.000
4464	4410	4409	4408	3	58.576	0.000	-58.576	-0.000	-0.000	0.000
4464	4410	4411	4412	3	58.576	0.000	-58.576	-0.000	-0.000	0.000
4464	4410	4411	4437	3	58.576	0.000	-58.576	-0.000	-0.000	0.000
4464	4410	4409	4441	3	58.576	0.000	-58.576	-0.000	-0.000	0.000
4453	4395	4394	4393	3	30.334	0.000	-30.334	-0.000	-0.000	0.000
4452	4392	4393	4394	3	30.334	0.000	-30.334	-0.000	-0.000	0.000
4458	4401	4393	4394	3	30.334	0.000	-30.334	-0.000	-0.000	0.000
4457	4400	4394	4393	3	30.334	0.000	-30.334	-0.000	-0.000	0.000
4457	4400	4394	4395	3	30.334	0.000	-30.334	-0.000	-0.000	0.000
4453	4395	4394	4400	3	30.334	0.000	-30.334	-0.000	-0.000	0.000
4452	4392	4393	4401	3	30.334	0.000	-30.334	-0.000	-0.000	0.000
4458	4401	4393	4392	3	30.334	0.000	-30.334	-0.000	-0.000	0.000
4451	4391	4392	4393	3	30.334	0.000	-30.334	-0.000	-0.000	0.000
4459	4402	4401	4393	3	30.334	0.000	-30.334	-0.000	-0.000	0.000
4454	4396	4395	4394	3	30.334	0.000	-30.334	-0.000	-0.000	0.000
4456	4399	4400	4394	3	30.334	0.000	-30.334	-0.000	-0.000	0.000
4461	4405	4406	4407	3	30.334	0.000	-30.334	-0.000	-0.000	0.000
4483	4442	4406	4407	3	30.334	0.000	-30.334	-0.000	-0.000	0.000
4468	4428	4429	4430	3	30.334	0.000	-30.334	-0.000	-0.000	0.000
4456	4399	4397	4396	3	30.334	0.000	-30.334	-0.000	-0.000	0.000
4471	4431	4430	4429	3	30.334	0.000	-30.334	-0.000	-0.000	0.000
4483	4442	4443	4403	3	30.334	0.000	-30.334	-0.000	-0.000	0.000
4469	4429	4428	4427	3	30.334	0.000	-30.334	-0.000	-0.000	0.000
4484	4443	4442	4406	3	30.334	0.000	-30.334	-0.000	-0.000	0.000
4470	4430	4429	4428	3	30.334	0.000	-30.334	-0.000	-0.000	0.000
4459	4402	4390	4391	3	30.334	0.000	-30.334	-0.000	-0.000	0.000
4458	4401	4402	4390	3	30.334	0.000	-30.334	-0.000	-0.000	0.000
4483	4442	4406	4405	3	30.334	0.000	-30.334	-0.000	-0.000	0.000
4484	4443	4403	4404	3	30.334	0.000	-30.334	-0.000	-0.000	0.000
4471	4431	4432	4427	3	30.334	0.000	-30.334	-0.000	-0.000	0.000
4468	4428	4427	4432	3	30.334	0.000	-30.334	-0.000	-0.000	0.000
4453	4395	4396	4397	3	30.334	0.000	-30.334	-0.000	-0.000	0.000
4454	4396	4397	4399	3	30.334	0.000	-30.334	-0.000	-0.000	0.000
4451	4391	4390	4402	3	30.334	0.000	-30.334	-0.000	-0.000	0.000
4460	4404	4403	4443	3	30.334	0.000	-30.334	-0.000	-0.000	0.000
4460	4404	4405	4406	3	30.334	0.000	-30.334	-0.000	-0.000	0.000
4457	4400	4399	4397	3	30.334	0.000	-30.334	-0.000	-0.000	0.000
4461	4405	4406	4442	3	30.334	0.000	-30.334	-0.000	-0.000	0.000
4470	4430	4431	4432	3	30.334	0.000	-30.334	-0.000	-0.000	0.000
4472	4432	4431	4430	3	30.334	0.000	-30.334	-0.000	-0.000	0.000
4469	4429	4430	4431	3	30.334	0.000	-30.334	-0.000	-0.000	0.000
4472	4432	4427	4428	3	30.334	0.000	-30.334	-0.000	-0.000	0.000
4452	4392	4391	4390	3	30.334	0.000	-30.334	-0.000	-0.000	0.000
4461	4405	4404	4403	3	30.334	0.000	-30.334	-0.000	-0.000	0.000
4472	4432	4427	4426	3	30.334	0.000	-30.334	-0.000	-0.000	0.000
4468	4428	4427	4426	3	30.334	0.000	-30.334	-0.000	-0.000	0.000
4461	4405	4404	4460	3	30.334	0.000	-30.334	-0.000	-0.000	0.000
4484	4443	4442	4483	3	30.334	0.000	-30.334	-0.000	-0.000	0.000
4470	4430	4429	4469	3	30.334	0.000	-30.334	-0.000	-0.000	0.000
4454	4396	4395	4453	3	30.334	0.000	-30.334	-0.000	-0.000	0.000
4459	4402	4401	4458	3	30.334	0.000	-30.334	-0.000	-0.000	0.000
4457	4400	4399	4456	3	30.334	0.000	-30.334	-0.000	-0.000	0.000
4469	4429	4428	4468	3	30.334	0.000	-30.334	-0.000	-0.000	0.000
4452	4392	4391	4451	3	30.334	0.000	-30.334	-0.000	-0.000	0.000
4471	4431	4430	4470	3	30.334	0.000	-30.334	-0.000	-0.000	0.000
4472	4432	4431	4471	3	30.334	0.000	-30.334	-0.000	-0.000	0.000
4484	4443	4403	4386	3	30.334	0.000	-30.334	-0.000	-0.000	0.000
4460	4404	4403	4386	3	30.334	0.000	-30.334	-0.000	-0.000	0.000
4454	4396	4397	4398	3	0.0	0.0	0.0	-0.0	-0.0	0.0
4456	4399	4397	4398	3	0.0	0.0	0.0	-0.0	-0.0	0.0
4451	4391	4390	4389	3	30.334	0.000	-30.334	-0.000	-0.000	0.000
4459	4402	4390	4389	3	30.334	0.000	-30.334	-0.000	-0.000	0.000
4465	4412	4411	4410	3	58.576	0.000	-58.576	-0.000	-0.000	0.000
4465	4412	4413	4414	3	58.576	0.000	-58.576	-0.000	-0.000	0.000
4467	4414	4413	4412	3	58.576	0.000	-58.576	-0.000	-0.000	0.000
4466	4413	4412	4411	3	58.576	0.000	-58.576	-0.000	-0.000	0.000
4463	4408	4409	4410	3	58.576	0.000	-58.576	-0.000	-0.000	0.000
4462	4407	4408	4409	3	58.576	0.000	-58.576	-0.000	-0.000	0.000
4463	4408	4407	4406	3	58.576	0.000	-58.576	-0.000	-0.000	0.000
4466	4413	4414	4415	3	58.576	0.000	-58.576	-0.000	-0.000	0.000
4465	4412	4411	4437	3	58.576	0.000	-58.576	-0.000	-0.000	0.000
4463	4408	4409	4441	3	58.576	0.000	-58.576	-0.000	-0.000	0.000
4463	4408	4407	4462	3	58.576	0.000	-58.576	-0.000	-0.000	0.000
4466	4413	4412	4465	3	58.576	0.000	-58.576	-0.000	-0.000	0.000
4467	4414	4413	4466	3	58.576	0.000	-58.576	-0.000	-0.000	0.000
4462	4407	4406	4442	3	-0.778	-2.335	0.000	3.113	-0.000	0.000
4462	4407	4406	4405	3	-0.778	-2.335	0.000	3.113	-0.000	0.000
4467	4414	4415	4416	3	58.576	0.000	-58.576	-0.000	-0.000	0.000
4467	4414	4415	4426	3	58.576	0.000	-58.576	-0.000	-0.000	0.000
4481	4441	4409	4408	3	-0.778	-2.335	0.000	3.113	-0.000	0.000
4481	4441	4409	4410	3	-0.778	-2.335	0.000	3.113	-0.000	0.000
4482	4441	4409	4408	3	-0.778	-2.335	0.000	3.113	-0.000	0.000
4474	4437	4411	4412	3	-0.778	-2.335	0.000	3.113	-0.000	0.000
4482	4441	4409	4410	3	-0.778	-2.335	0.000	3.113	-0.000	0.000
4473	4437	4411	4410	3	-0.778	-2.335	0.000	3.113	-0.000	0.000
4474	4437	4411	4410	3	-0.778	-2.335	0.000	3.113	-0.000	0.000
4473	4437	4411	4412	3	-0.778	-2.335	0.000	3.113	-0.000	0.000
4476	4439	4438	4441	3	0.628	1.883	0.000	-2.510	-0.000	0.000
4475	4439	4438	4440	3	0.628	1.883	0.000	-2.510	-0.000	0.000
4475	4439	4438	4437	3	0.628	1.883	0.000	-2.510	-0.000	0.000
4477	4439	4438	4440	3	0.628	1.883	0.000	-2.510	-0.000	0.000
4479	4440	4438	4437	3	0.628	1.883	0.000	-2.510	-0.000	0.000
4478	4440	4438	4437	3	0.628	1.883	0.000	-2.510	-0.000	0.000
4477	4439	4438	4437	3	0.628	1.883	0.000	-2.510	-0.000	0.000
4479	4440	4438	4439	3	0.628	1.883	0.000	-2.510	-0.000	0.000
4476	4439	4438	4437	3	0.628	1.883	0.000	-2.510	-0.000	0.000
4481	4441	4438	4437	3	0.628	1.883	0.000	-2.510	-0.000	0.000
4481	4441	4438	4439	3	0.628	1.883	0.000	-2.510	-0.000	0.000
4474	4437	4438	4439	3	0.628	1.883	0.000	-2.510	-0.000	0.000
4477	4439	4438	4441	3	0.628	1.883	0.000	-2.510	-0.000	0.000
4474	4437	4438	4440	3	0.628	1.883	0.000	-2.510	-0.000	0.000
4482	4441	4438	4439	3	0.628	1.883	0.000	-2.510	-0.000	0.000
4478	4440	4438	4441	3	0.628	1.883	0.000	-2.510	-0.000	0.000
4479	4440	4438	4441	3	0.628	1.883	0.000	-2.510	-0.000	0.000
4480	4440	4438	4437	3	0.628	1.883	0.000	-2.510	-0.000	0.000
4473	4437	4438	4440	3	0.628	1.883	0.000	-2.510	-0.000	0.000
4473	4437	4438	4439	3	0.628	1.883	0.000	-2.510	-0.000	0.000
4478	4440	4438	4439	3	0.628	1.883	0.000	-2.510	-0.000	0.000
4474	4437	4438	4441	3	0.628	1.883	0.000	-2.510	-0.000	0.000
4482	4441	4438	4440	3	0.628	1.883	0.000	-2.510	-0.000	0.000
4476	4439	4438	4440	3	0.628	1.883	0.000	-2.510	-0.000	0.000
4475	4439	4438	4441	3	0.628	1.883	0.000	-2.510	-0.000	0.000
4482	4441	4438	4437	3	0.628	1.883	0.000	-2.510	-0.000	0.000
4473	4437	4438	4441	3	0.628	1.883	0.000	-2.510	-0.000	0.000
4480	4440	4438	4439	3	0.628	1.883	0.000	-2.510	-0.000	0.000
4481	4441	4438	4440	3	0.628	1.883	0.000	-2.510	-0.000	0.000
4480	4440	4438	4441	3	0.628	1.883	0.000	-2.510	-0.000	0.000
4449	4388	4387	4448	3	0.628	1.883	0.000	-2.510	-0.000	0.000
4450	4388	4387	4447	3	0.628	1.883	0.000	-2.510	-0.000	0.000
4449	4388	4387	4447	3	0.628	1.883	0.000	-2.510	-0.000	0.000
4450	4388	4387	4448	3	0.628	1.883	0.000	-2.510	-0.000	0.000
4450	4388	4387	4386	3	-4.096	5.088	2.966	-3.958	-0.000	0.000
4449	4388	4387	4386	3	-4.096	5.088	2.966	-3.958	-0.000	0.000
4448	4387	4388	4389	3	0.979	2.937	0.000	-3.916	-0.000	0.000
4447	4387	4388	4389	3	0.979	2.937	0.000	-3.916	-0.000	0.000
4448	4387	4386	4403	3	1.172	3.515	0.000	-4.686	-0.000	0.000
4444	4385	4386	4403	3	1.172	3.515	0.000	-4.686	-0.000	0.000
4447	4387	4386	4403	3	1.172	3.515	0.000	-4.686	-0.000	0.000
4445	4385	4386	4403	3	1.172	3.515	0.000	-4.686	-0.000	0.000
4446	4385	4386	4403	3	1.172	3.515	0.000	-4.686	-0.000	0.000
4447	4387	4386	4385	3	1.172	3.515	0.000	-4.686	-0.000	0.000
4445	4385	4386	4387	3	1.172	3.515	0.000	-4.686	-0.000	0.000
4448	4387	4386	4385	3	1.172	3.515	0.000	-4.686	-0.000	0.000
4446	4385	4386	4387	3	1.172	3.515	0.000	-4.686	-0.000	0.000
4444	4385	4386	4387	3	1.172	3.515	0.000	-4.686	-0.000	0.000
4449	4388	4389	4390	3	1.590	4.770	0.000	-6.360	-0.000	0.000
4450	4388	4389	4390	3	1.590	4.770	0.000	-6.360	-0.000	0.000
4455	4398	4397	4399	3	0.0	0.0	0.0	-0.0	-0.0	0.0
4455	4398	4397	4396	3	0.0	0.0	0.0	-0.0	-0.0	0.0
4398	4397	4396	4395	3	0.0	0.0	0.0	-0.0	-0.0	0.0
4425	4426	4415	4414	3	2.874	0.582	2.092	-5.548	-0.000	0.000
4425	4426	4415	4416	3	1.046	-1.046	0.000	-0.000	-0.000	0.000
4389	4388	4387	4386	3	16.736	-16.736	0.000	-0.000	-0.000	0.000
4425	4419	4416	4415	3	1.046	-1.046	0.000	-0.000	-0.000	0.000
4425	4419	4416	4417	3	9.079	0.000	-9.079	-0.000	-0.000	0.000
4494	4493	4492	4491	3	30.334	0.000	-30.334	-0.000	-0.000	0.000
4493	4501	4502	4490	3	30.334	0.000	-30.334	-0.000	-0.000	0.000
4493	4492	4491	4490	3	30.334	0.000	-30.334	-0.000	-0.000	0.000
4514	4513	4512	4511	3	21.738	2.408	-16.966	-7.180	-0.000	0.000
4510	4509	4508	4507	3	21.738	2.408	-16.966	-7.180	-0.000	0.000
4511	4510	4509	4508	3	21.738	2.408	-16.966	-7.180	-0.000	0.000
4512	4511	4510	4509	3	21.738	2.408	-16.966	-7.180	-0.000	0.000
4513	4512	4511	4510	3	21.738	2.408	-16.966	-7.180	-0.000	0.000
4509	4508	4507	4506	3	58.576	0.000	-58.576	-0.000	-0.000	0.000
4508	4507	4506	4505	3	16.027	-4.391	-14.029	2.393	-0.000	0.000
4507	4506	4505	4504	3	30.334	0.000	-30.334	-0.000	-0.000	0.000
4516	4515	4514	4513	3	58.576	0.000	-58.576	-0.000	-0.000	0.000
4501	4493	4494	4500	3	9.079	0.000	-9.079	-0.000	-0.000	0.000
4500	4494	4493	4492	3	9.079	0.000	-9.079	-0.000	-0.000	0.000
4501	4493	4494	4495	3	9.079	0.000	-9.079	-0.000	-0.000	0.000
4495	4494	4493	4492	3	9.079	0.000	-9.079	-0.000	-0.000	0.000
4500	4494	4495	4496	3	30.334	0.000	-30.334	-0.000	-0.000	0.000
4501	4493	4492	4491	3	30.334	0.000	-30.334	-0.000	-0.000	0.000
4499	4500	4494	4493	3	30.334	0.000	-30.334	-0.000	-0.000	0.000
4502	4501	4493	4494	3	30.334	0.000	-30.334	-0.000	-0.000	0.000
4496	4495	4494	4493	3	30.334	0.000	-30.334	-0.000	-0.000	0.000
4499	4500	4494	4495	3	30.334	0.000	-30.334	-0.000	-0.000	0.000
4502	4501	4493	4492	3	30.334	0.000	-30.334	-0.000	-0.000	0.000
4542	4506	4507	4508	3	16.027	-4.391	-14.029	2.393	-0.000	0.000
4497	4499	4500	4494	3	30.334	0.000	-30.334	-0.000	-0.000	0.000
4497	4496	4495	4494	3	30.334	0.000	-30.334	-0.000	-0.000	0.000
4543	4542	4506	4507	3	30.334	0.000	-30.334	-0.000	-0.000	0.000
4532	4527	4528	4529	3	30.334	0.000	-30.334	-0.000	-0.000	0.000
4543	4542	4506	4505	3	30.334	0.000	-30.334	-0.000	-0.000	0.000
4502	4490	4491	4492	3	30.334	0.000	-30.334	-0.000	-0.000	0.000
4542	4543	4503	4504	3	30.334	0.000	-30.334	-0.000	-0.000	0.000
4532	4531	4530	4529	3	30.334	0.000	-30.334	-0.000	-0.000	0.000
4531	4530	4529	4528	3	30.334	0.000	-30.334	-0.000	-0.000	0.000
4530	4529	4528	4527	3	30.334	0.000	-30.334	-0.000	-0.000	0.000
4506	4505	4504	4503	3	30.334	0.000	-30.334	-0.000	-0.000	0.000
4506	4542	4543	4503	3	30.334	0.000	-30.334	-0.000	-0.000	0.000
4543	4503	4504	4505	3	30.334	0.000	-30.334	-0.000	-0.000	0.000
4542	4506	4505	4504	3	30.334	0.000	-30.334	-0.000	-0.000	0.000
4531	4532	4527	4528	3	30.334	0.000	-30.334	-0.000	-0.000	0.000
4500	4499	4497	4496	3	30.334	0.000	-30.334	-0.000	-0.000	0.000
4501	4502	4490	4491	3	30.334	0.000	-30.334	-0.000	-0.000	0.000
4530	4531	4532	4527	3	30.334	0.000	-30.334	-0.000	-0.000	0.000
4499	4497	4496	4495	3	30.334	0.000	-30.334	-0.000	-0.000	0.000
4531	4532	4527	4526	3	30.334	0.000	-30.334	-0.000	-0.000	0.000
4529	4528	4527	4526	3	30.334	0.000	-30.334	-0.000	-0.000	0.000
4542	4543	4503	4486	3	30.334	0.000	-30.334	-0.000	-0.000	0.000
4505	4504	4503	4486	3	30.334	0.000	-30.334	-0.000	-0.000	0.000
4500	4499	4497	4498	3	0.0	0.0	0.0	-0.0	-0.0	0.0
4492	4491	4490	4489	3	30.334	0.000	-30.334	-0.000	-0.000	0.000
4501	4502	4490	4489	3	30.334	0.000	-30.334	-0.000	-0.000	0.000
4532	4527	4526	4515	3	0.000	0.000	0.000	-0.000	-0.000	0.000
4528	4527	4526	4515	3	0.000	0.000	0.000	-0.000	-0.000	0.000
4532	4527	4526	4525	3	0.000	0.000	0.000	-0.000	-0.000	0.000
4528	4527	4526	4525	3	0.000	0.000	0.000	-0.000	-0.000	0.000
4543	4503	4486	4487	3	5.184	35.932	-14.355	-26.761	-0.000	0.000
4504	4503	4486	4487	3	5.184	35.932	-14.355	-26.761	-0.000	0.000
4504	4503	4486	4485	3	5.184	35.932	-14.355	-26.761	-0.000	0.000
4543	4503	4486	4485	3	5.184	35.932	-14.355	-26.761	-0.000	0.000
4491	4490	4489	4488	3	12.552	0.000	-12.552	-0.000	-0.000	0.000
4502	4490	4489	4488	3	12.552	0.000	-12.552	-0.000	-0.000	0.000
4527	4526	4515	4514	3	6.322	-2.485	0.707	-4.544	-0.000	0.000
4527	4526	4515	4516	3	0.527	-6.397	-1.695	7.565	-0.000	0.000
4527	4526	4525	4519	3	1.715	2.845	1.046	-5.607	-0.000	0.000
4503	4486	4487	4488	3	1.789	3.492	0.536	-5.816	-0.000	0.000
4490	4489	4488	4487	3	1.715	2.845	1.046	-5.607	-0.000	0.000
4533	4526	4527	4528	3	0.000	0.000	0.000	-0.000	-0.000	0.000
4533	4526	4527	4532	3	0.000	0.000	0.000	-0.000	-0.000	0.000
4533	4526	4515	4514	3	6.322	-2.485	0.707	-4.544	-0.000	0.000
4533	4526	4515	4516	3	0.527	-6.397	-1.695	7.565	-0.000	0.000
4533	4526	4525	4519	3	1.715	2.845	1.046	-5.607	-0.000	0.000
4515	4514	4513	4512	3	21.738	2.408	-16.966	-7.180	-0.000	0.000
4520	4519	4516	4515	3	21.738	2.408	-16.966	-7.180	-0.000	0.000
4520	4519	4516	4517	3	-0.778	-2.335	0.000	3.113	-0.000	0.000
4541	4509	4508	4507	3	58.576	0.000	-58.576	-0.000	-0.000	0.000
4537	4511	4510	4509	3	58.576	0.000	-58.576	-0.000	-0.000	0.000
4541	4509	4510	4511	3	58.576	0.000	-58.576	-0.000	-0.000	0.000
4537	4511	4512	4513	3	58.576	0.000	-58.576	-0.000	-0.000	0.000
4526	4515	4514	4513	3	-0.778	-2.335	0.000	3.113	-0.000	0.000
4526	4515	4516	4519	3	58.576	0.000	-58.576	-0.000	-0.000	0.000
4526	4515	4516	4517	3	58.576	0.000	-58.576	-0.000	-0.000	0.000
4538	4541	4509	4508	3	0.527	-6.397	-1.695	7.565	-0.000	0.000
4538	4537	4511	4512	3	0.527	-6.397	-1.695	7.565	-0.000	0.000
4538	4537	4511	4510	3	0.527	-6.397	-1.695	7.565	-0.000	0.000
4538	4541	4509	4510	3	0.527	-6.397	-1.695	7.565	-0.000	0.000
4541	4538	4537	4511	3	2.301	-1.464	0.837	-1.674	-0.000	0.000
4540	4538	4541	4509	3	2.301	-1.464	0.837	-1.674	-0.000	0.000
4537	4538	4541	4509	3	2.301	-1.464	0.837	-1.674	-0.000	0.000
4539	4538	4541	4509	3	2.301	-1.464	0.837	-1.674	-0.000	0.000
4540	4538	4537	4511	3	2.301	-1.464	0.837	-1.674	-0.000	0.000
4539	4538	4537	4511	3	2.301	-1.464	0.837	-1.674	-0.000	0.000
4488	4487	4486	4485	3	1.789	3.492	0.536	-5.816	-0.000	0.000
4526	4525	4519	4516	3	30.334	0.000	-30.334	-0.000	-0.000	0.000
4526	4525	4519	4520	3	30.334	0.000	-30.334	-0.000	-0.000	0.000
4519	4516	4515	4514	3	58.576	0.000	-58.576	-0.000	-0.000	0.000
4519	4525	4526	4515	3	1.715	2.845	1.046	-5.607	-0.000	0.000
4517	4516	4515	4514	3	58.576	0.000	-58.576	-0.000	-0.000	0.000
4521	4520	4519	4516	3	58.576	0.000	-58.576	-0.000	-0.000	0.000
4523	4520	4519	4516	3	58.576	0.000	-58.576	-0.000	-0.000	0.000
4534	4533	4526	4527	3	0.000	0.000	0.000	-0.000	-0.000	0.000
4535	4533	4526	4527	3	0.000	0.000	0.000	-0.000	-0.000	0.000
4536	4533	4526	4527	3	0.000	0.000	0.000	-0.000	-0.000	0.000
4535	4533	4526	4515	3	0.000	0.000	0.000	-0.000	-0.000	0.000
4534	4533	4526	4515	3	0.000	0.000	0.000	-0.000	-0.000	0.000
4536	4533	4526	4515	3	0.000	0.000	0.000	-0.000	-0.000	0.000
4535	4533	4526	4525	3	1.130	3.389	0.000	-4.519	-0.000	0.000
4536	4533	4526	4525	3	1.130	3.389	0.000	-4.519	-0.000	0.000
4534	4533	4526	4525	3	1.130	3.389	0.000	-4.519	-0.000	0.000
4564	4510	4509	4508	3	58.576	0.000	-58.576	-0.000	-0.000	0.000
4564	4510	4511	4512	3	58.576	0.000	-58.576	-0.000	-0.000	0.000
4564	4510	4511	4537	3	58.576	0.000	-58.576	-0.000	-0.000	0.000
4564	4510	4509	4541	3	58.576	0.000	-58.576	-0.000	-0.000	0.000
4553	4495	4494	4493	3	30.334	0.000	-30.334	-0.000	-0.000	0.000
4552	4492	4493	4494	3	30.334	0.000	-30.334	-0.000	-0.000	0.000
4558	4501	4493	4494	3	30.334	0.000	-30.334	-0.000	-0.000	0.000
4557	4500	4494	4493	3	30.334	0.000	-30.334	-0.000	-0.000	0.000
4557	4500	4494	4495	3	30.334	0.000	-30.334	-0.000	-0.000	0.000
4553	4495	4494	4500	3	30.334	0.000	-30.334	-0.000	-0.000	0.000
4552	4492	4493	4501	3	30.334	0.000	-30.334	-0.000	-0.000	0.000
4558	4501	4493	4492	3	30.334	0.000	-30.334	-0.000	-0.000	0.000
4551	4491	4492	4493	3	30.334	0.000	-30.334	-0.000	-0.000	0.000
4559	4502	4501	4493	3	30.334	0.000	-30.334	-0.000	-0.000	0.000
4554	4496	4495	4494	3	30.334	0.000	-30.334	-0.000	-0.000	0.000
4556	4499	4500	4494	3	30.334	0.000	-30.334	-0.000	-0.000	0.000
4561	4505	4506	4507	3	30.334	0.000	-30.334	-0.000	-0.000	0.000
4583	4542	4506	4507	3	30.334	0.000	-30.334	-0.000	-0.000	0.000
4568	4528	4529	4530	3	30.334	0.000	-30.334	-0.000	-0.000	0.000
4556	4499	4497	4496	3	30.334	0.000	-30.334	-0.000	-0.000	0.000
4571	4531	4530	4529	3	30.334	0.000	-30.334	-0.000	-0.000	0.000
4583	4542	4543	4503	3	30.334	0.000	-30.334	-0.000	-0.000	0.000
4569	4529	4528	4527	3	30.334	0.000	-30.334	-0.000	-0.000	0.000
4584	4543	4542	4506	3	30.334	0.000	-30.334	-0.000	-0.000	0.000
4570	4530	4529	4528	3	30.334	0.000	-30.334	-0.000	-0.000	0.000
4559	4502	4490	4491	3	30.334	0.000	-30.334	-0.000	-0.000	0.000
4558	4501	4502	4490	3	30.334	0.000	-30.334	-0.000	-0.000	0.000
4583	4542	4506	4505	3	30.334	0.000	-30.334	-0.000	-0.000	0.000
4584	4543	4503	4504	3	30.334	0.000	-30.334	-0.000	-0.000	0.000
4571	4531	4532	4527	3	30.334	0.000	-30.334	-0.000	-0.000	0.000
4568	4528	4527	4532	3	30.334	0.000	-30.334	-0.000	-0.000	0.000
4553	4495	4496	4497	3	30.334	0.000	-30.334	-0.000	-0.000	0.000
4554	4496	4497	4499	3	30.334	0.000	-30.334	-0.000	-0.000	0.000
4551	4491	4490	4502	3	30.334	0.000	-30.334	-0.000	-0.000	0.000
4560	4504	4503	4543	3	30.334	0.000	-30.334	-0.000	-0.000	0.000
4560	4504	4505	4506	3	30.334	0.000	-30.334	-0.000	-0.000	0.000
4557	4500	4499	4497	3	30.334	0.000	-30.334	-0.000	-0.000	0.000
4561	4505	4506	4542	3	30.334	0.000	-30.334	-0.000	-0.000	0.000
4570	4530	4531	4532	3	30.334	0.000	-30.334	-0.000	-0.000	0.000
4572	4532	4531	4530	3	30.334	0.000	-30.334	-0.000	-0.000	0.000
4569	4529	4530	4531	3	30.334	0.000	-30.334	-0.000	-0.000	0.000
4572	4532	4527	4528	3	30.334	0.000	-30.334	-0.000	-0.000	0.000
4552	4492	4491	4490	3	30.334	0.000	-30.334	-0.000	-0.000	0.000
4561	4505	4504	4503	3	30.334	0.000	-30.334	-0.000	-0.000	0.000
4572	4532	4527	4526	3	30.334	0.000	-30.334	-0.000	-0.000	0.000
4568	4528	4527	4526	3	30.334	0.000	-30.334	-0.000	-0.000	0.000
4561	4505	4504	4560	3	30.334	0.000	-30.334	-0.000	-0.000	0.000
4584	4543	4542	4583	3	30.334	0.000	-30.334	-0.000	-0.000	0.000
4570	4530	4529	4569	3	30.334	0.000	-30.334	-0.000	-0.000	0.000
4554	4496	4495	4553	3	30.334	0.000	-30.334	-0.000	-0.000	0.000
4559	4502	4501	4558	3	30.334	0.000	-30.334	-0.000	-0.000	0.000
4557	4500	4499	4556	3	30.334	0.000	-30.334	-0.000	-0.000	0.000
4569	4529	4528	4568	3	30.334	0.000	-30.334	-0.000	-0.000	0.000
4552	4492	4491	4551	3	30.334	0.000	-30.334	-0.000	-0.000	0.000
4571	4531	4530	4570	3	30.334	0.000	-30.334	-0.000	-0.000	0.000
4572	4532	4531	4571	3	30.334	0.000	-30.334	-0.000	-0.000	0.000
4584	4543	4503	4486	3	30.334	0.000	-30.334	-0.000	-0.000	0.000
4560	4504	4503	4486	3	30.334	0.000	-30.334	-0.000	-0.000	0.000
4554	4496	4497	4498	3	0.0	0.0	0.0	-0.0	-0.0	0.0
4556	4499	4497	4498	3	0.0	0.0	0.0	-0.0	-0.0	0.0
4551	4491	4490	4489	3	30.334	0.000	-30.334	-0.000	-0.000	0.000
4559	4502	4490	4489	3	30.334	0.000	-30.334	-0.000	-0.000	0.000
4565	4512	4511	4510	3	58.576	0.000	-58.576	-0.000	-0.000	0.000
4565	4512	4513	4514	3	58.576	0.000	-58.576	-0.000	-0.000	0.000
4567	4514	4513	4512	3	58.576	0.000	-58.576	-0.000	-0.000	0.000
4566	4513	4512	4511	3	58.576	0.000	-58.576	-0.000	-0.000	0.000
4563	4508	4509	4510	3	58.576	0.000	-58.576	-0.000	-0.000	0.000
4562	4507	4508	4509	3	58.576	0.000	-58.576	-0.000	-0.000	0.000
4563	4508	4507	4506	3	58.576	0.000	-58.576	-0.000	-0.000	0.000
4566	4513	4514	4515	3	58.576	0.000	-58.576	-0.000	-0.000	0.000
4565	4512	4511	4537	3	58.576	0.000	-58.576	-0.000	-0.000	0.000
4563	4508	4509	4541	3	58.576	0.000	-58.576	-0.000	-0.000	0.000
4563	4508	4507	4562	3	58.576	0.000	-58.576	-0.000	-0.000	0.000
4566	4513	4512	4565	3	58.576	0.000	-58.576	-0.000	-0.000	0.000
4567	4514	4513	4566	3	58.576	0.000	-58.576	-0.000	-0.000	0.000
4562	4507	4506	4542	3	-0.778	-2.335	0.000	3.113	-0.000	0.000
4562	4507	4506	4505	3	-0.778	-2.335	0.000	3.113	-0.000	0.000
4567	4514	4515	4516	3	58.576	0.000	-58.576	-0.000	-0.000	0.000
4567	4514	4515	4526	3	58.576	0.000	-58.576	-0.000	-0.000	0.000
4581	4541	4509	4508	3	-0.778	-2.335	0.000	3.113	-0.000	0.000
4581	4541	4509	4510	3	-0.778	-2.335	0.000	3.113	-0.000	0.000
4582	4541	4509	4508	3	-0.778	-2.335	0.000	3.113	-0.000	0.000
4574	4537	4511	4512	3	-0.778	-2.335	0.000	3.113	-0.000	0.000
4582	4541	4509	4510	3	-0.778	-2.335	0.000	3.113	-0.000	0.000
4573	4537	4511	4510	3	-0.778	-2.335	0.000	3.113	-0.000	0.000
4574	4537	4511	4510	3	-0.778	-2.335	0.000	3.113	-0.000	0.000
4573	4537	4511	4512	3	-0.778	-2.335	0.000	3.113	-0.000	0.000
4576	4539	4538	4541	3	0.628	1.883	0.000	-2.510	-0.000	0.000
4575	4539	4538	4540	3	0.628	1.883	0.000	-2.510	-0.000	0.000
4575	4539	4538	4537	3	0.628	1.883	0.000	-2.510	-0.000	0.000
4577	4539	4538	4540	3	0.628	1.883	0.000	-2.510	-0.000	0.000
4579	4540	4538	4537	3	0.628	1.883	0.000	-2.510	-0.000	0.000
4578	4540	4538	4537	3	0.628	1.883	0.000	-2.510	-0.000	0.000
4577	4539	4538	4537	3	0.628	1.883	0.000	-2.510	-0.000	0.000
4579	4540	4538	4539	3	0.628	1.883	0.000	-2.510	-0.000	0.000
4576	4539	4538	4537	3	0.628	1.883	0.000	-2.510	-0.000	0.000
4581	4541	4538	4537	3	0.628	1.883	0.000	-2.510	-0.000	0.000
4581	4541	4538	4539	3	0.628	1.883	0.000	-2.510	-0.000	0.000
4574	4537	4538	4539	3	0.628	1.883	0.000	-2.510	-0.000	0.000
4577	4539	4538	4541	3	0.628	1.883	0.000	-2.510	-0.000	0.000
4574	4537	4538	4540	3	0.628	1.883	0.000	-2.510	-0.000	0.000
4582	4541	4538	4539	3	0.628	1.883	0.000	-2.510	-0.000	0.000
4578	4540	4538	4541	3	0.628	1.883	0.000	-2.510	-0.000	0.000
4579	4540	4538	4541	3	0.628	1.883	0.000	-2.510	-0.000	0.000
4580	4540	4538	4537	3	0.628	1.883	0.000	-2.510	-0.000	0.000
4573	4537	4538	4540	3	0.628	1.883	0.000	-2.510	-0.000	0.000
4573	4537	4538	4539	3	0.628	1.883	0.000	-2.510	-0.000	0.000
4578	4540	4538	4539	3	0.628	1.883	0.000	-2.510	-0.000	0.000
4574	4537	4538	4541	3	0.628	1.883	0.000	-2.510	-0.000	0.000
4582	4541	4538	4540	3	0.628	1.883	0.000	-2.510	-0.000	0.000
4576	4539	4538	4540	3	0.628	1.883	0.000	-2.510	-0.000	0.000
4575	4539	4538	4541	3	0.628	1.883	0.000	-2.510	-0.000	0.000
4582	4541	4538	4537	3	0.628	1.883	0.000	-2.510	-0.000	0.000
4573	4537	4538	4541	3	0.628	1.883	0.000	-2.510	-0.000	0.000
4580	4540	4538	4539	3	0.628	1.883	0.000	-2.510	-0.000	0.000
4581	4541	4538	4540	3	0.628	1.883	0.000	-2.510	-0.000	0.000
4580	4540	4538	4541	3	0.628	1.883	0.000	-2.510	-0.000	0.000
4549	4488	4487	4548	3	0.628	1.883	0.000	-2.510	-0.000	0.000
4550	4488	4487	4547	3	0.628	1.883	0.000	-2.510	-0.000	0.000
4549	4488	4487	4547	3	0.628	1.883	0.000	-2.510	-0.000	0.000
4550	4488	4487	4548	3	0.628	1.883	0.000	-2.510	-0.000	0.000
4550	4488	4487	4486	3	-4.096	5.088	2.966	-3.958	-0.000	0.000
4549	4488	4487	4486	3	-4.096	5.088	2.966	-3.958	-0.000	0.000
4548	4487	4488	4489	3	0.979	2.937	0.000	-3.916	-0.000	0.000
4547	4487	4488	4489	3	0.979	2.937	0.000	-3.916	-0.000	0.000
4548	4487	4486	4503	3	1.172	3.515	0.000	-4.686	-0.000	0.000
4544	4485	4486	4503	3	1.172	3.515	0.000	-4.686	-0.000	0.000
4547	4487	4486	4503	3	1.172	3.515	0.000	-4.686	-0.000	0.000
4545	4485	4486	4503	3	1.172	3.515	0.000	-4.686	-0.000	0.000
4546	4485	4486	4503	3	1.172	3.515	0.000	-4.686	-0.000	0.000
4547	4487	4486	4485	3	1.172	3.515	0.000	-4.686	-0.000	0.000
4545	4485	4486	4487	3	1.172	3.515	0.000	-4.686	-0.000	0.000
4548	4487	4486	4485	3	1.172	3.515	0.000	-4.686	-0.000	0.000
4546	4485	4486	4487	3	1.172	3.515	0.000	-4.686	-0.000	0.000
4544	4485	4486	4487	3	1.172	3.515	0.000	-4.686	-0.000	0.000
4549	4488	4489	4490	3	1.590	4.770	0.000	-6.360	-0.000	0.000
4550	4488	4489	4490	3	1.590	4.770	0.000	-6.360	-0.000	0.000
4555	4498	4497	4499	3	0.0	0.0	0.0	-0.0	-0.0	0.0
4555	4498	4497	4496	3	0.0	0.0	0.0	-0.0	-0.0	0.0
4498	4497	4496	4495	3	0.0	0.0	0.0	-0.0	-0.0	0.0
4525	4526	4515	4514	3	2.874	0.582	2.092	-5.548	-0.000	0.000
4525	4526	4515	4516	3	1.046	-1.046	0.000	-0.000	-0.000	0.000
4489	4488	4487	4486	3	16.736	-16.736	0.000	-0.000	-0.000	0.000
4525	4519	4516	4515	3	1.046	-1.046	0.000	-0.000	-0.000	0.000
4525	4519	4516	4517	3	9.079	0.000	-9.079	-0.000	-0.000	0.000
4594	4593	4592	4591	3	30.334	0.000	-30.334	-0.000	-0.000	0.000
4593	4601	4602	4590	3	30.334	0.000	-30.334	-0.000	-0.000	0.000
4593	4592	4591	4590	3	30.334	0.000	-30.334	-0.000	-0.000	0.000
4614	4613	4612	4611	3	21.738	2.408	-16.966	-7.180	-0.000	0.000
4610	4609	4608	4607	3	21.738	2.408	-16.966	-7.180	-0.000	0.000
4611	4610	4609	4608	3	21.738	2.408	-16.966	-7.180	-0.000	0.000
4612	4611	4610	4609	3	21.738	2.408	-16.966	-7.180	-0.000	0.000
4613	4612	4611	4610	3	21.738	2.408	-16.966	-7.180	-0.000	0.000
4609	4608	4607	4606	3	58.576	0.000	-58.576	-0.000	-0.000	0.000
4608	4607	4606	4605	3	16.027	-4.391	-14.029	2.393	-0.000	0.000
4607	4606	4605	4604	3	30.334	0.000	-30.334	-0.000	-0.000	0.000
4616	4615	4614	4613	3	58.576	0.000	-58.576	-0.000	-0.000	0.000
4601	4593	4594	4600	3	9.079	0.000	-9.079	-0.000	-0.000	0.000
4600	4594	4593	4592	3	9.079	0.000	-9.079	-0.000	-0.000	0.000
4601	4593	4594	4595	3	9.079	0.000	-9.079	-0.000	-0.000	0.000
4595	4594	4593	4592	3	9.079	0.000	-9.079	-0.000	-0.000	0.000
4600	4594	4595	4596	3	30.334	0.000	-30.334	-0.000	-0.000	0.000
4601	4593	4592	4591	3	30.334	0.000	-30.334	-0.000	-0.000	0.000
4599	4600	4594	4593	3	30.334	0.000	-30.334	-0.000	-0.000	0.000
4602	4601	4593	4594	3	30.334	0.000	-30.334	-0.000	-0.000	0.000
4596	4595	4594	4593	3	30.334	0.000	-30.334	-0.000	-0.000	0.000
4599	4600	4594	4595	3	30.334	0.000	-30.334	-0.000	-0.000	0.000
4602	4601	4593	4592	3	30.334	0.000	-30.334	-0.000	-0.000	0.000
4642	4606	4607	4608	3	16.027	-4.391	-14.029	2.393	-0.000	0.000
4597	4599	4600	4594	3	30.334	0.000	-30.334	-0.000	-0.000	0.000
4597	4596	4595	4594	3	30.334	0.000	-30.334	-0.000	-0.000	0.000
4643	4642	4606	4607	3	30.334	0.000	-30.334	-0.000	-0.000	0.000
4632	4627	4628	4629	3	30.334	0.000	-30.334	-0.000	-0.000	0.000
4643	4642	4606	4605	3	30.334	0.000	-30.334	-0.000	-0.000	0.000
4602	4590	4591	4592	3	30.334	0.000	-30.334	-0.000	-0.000	0.000
4642	4643	4603	4604	3	30.334	0.000	-30.334	-0.000	-0.000	0.000
4632	4631	4630	4629	3	30.334	0.000	-30.334	-0.000	-0.000	0.000
4631	4630	4629	4628	3	30.334	0.000	-30.334	-0.000	-0.000	0.000
4630	4629	4628	4627	3	30.334	0.000	-30.334	-0.000	-0.000	0.000
4606	4605	4604	4603	3	30.334	0.000	-30.334	-0.000	-0.000	0.000
4606	4642	4643	4603	3	30.334	0.000	-30.334	-0.000	-0.000	0.000
4643	4603	4604	4605	3	30.334	0.000	-30.334	-0.000	-0.000	0.000
4642	4606	4605	4604	3	30.334	0.000	-30.334	-0.000	-0.000	0.000
4631	4632	4627	4628	3	30.334	0.000	-30.334	-0.000	-0.000	0.000
4600	4599	4597	4596	3	30.334	0.000	-30.334	-0.000	-0.000	0.000
4601	4602	4590	4591	3	30.334	0.000	-30.334	-0.000	-0.000	0.000
4630	4631	4632	4627	3	30.334	0.000	-30.334	-0.000	-0.000	0.000
4599	4597	4596	4595	3	30.334	0.000	-30.334	-0.000	-0.000	0.000
4631	4632	4627	4626	3	30.334	0.000	-30.334	-0.000	-0.000	0.000
4629	4628	4627	4626	3	30.334	0.000	-30.334	-0.000	-0.000	0.000
4642	4643	4603	4586	3	30.334	0.000	-30.334	-0.000	-0.000	0.000
4605	4604	4603	4586	3	30.334	0.000	-30.334	-0.000	-0.000	0.000
4600	4599	4597	4598	3	0.0	0.0	0.0	-0.0	-0.0	0.0
4592	4591	4590	4589	3	30.334	0.000	-30.334	-0.000	-0.000	0.000
4601	4602	4590	4589	3	30.334	0.000	-30.334	-0.000	-0.000	0.000
4632	4627	4626	4615	3	0.000	0.000	0.000	-0.000	-0.000	0.000
4628	4627	4626	4615	3	0.000	0.000	0.000	-0.000	-0.000	0.000
4632	4627	4626	4625	3	0.000	0.000	0.000	-0.000	-0.000	0.000
4628	4627	4626	4625	3	0.000	0.000	0.000	-0.000	-0.000	0.000
4643	4603	4586	4587	3	5.184	35.932	-14.355	-26.761	-0.000	0.000
4604	4603	4586	4587	3	5.184	35.932	-14.355	-26.761	-0.000	0.000
4604	4603	4586	4585	3	5.184	35.932	-14.355	-26.761	-0.000	0.000
4643	4603	4586	4585	3	5.184	35.932	-14.355	-26.761	-0.000	0.000
4591	4590	4589	4588	3	12.552	0.000	-12.552	-0.000	-0.000	0.000
4602	4590	4589	4588	3	12.552	0.000	-12.552	-0.000	-0.000	0.000
4627	4626	4615	4614	3	6.322	-2.485	0.707	-4.544	-0.000	0.000
4627	4626	4615	4616	3	0.527	-6.397	-1.695	7.565	-0.000	0.000
4627	4626	4625	4619	3	1.715	2.845	1.046	-5.607	-0.000	0.000
4603	4586	4587	4588	3	1.789	3.492	0.536	-5.816	-0.000	0.000
4590	4589	4588	4587	3	1.715	2.845	1.046	-5.607	-0.000	0.000
4633	4626	4627	4628	3	0.000	0.000	0.000	-0.000	-0.000	0.000
4633	4626	4627	4632	3	0.000	0.000	0.000	-0.000	-0.000	0.000
4633	4626	4615	4614	3	6.322	-2.485	0.707	-4.544	-0.000	0.000
4633	4626	4615	4616	3	0.527	-6.397	-1.695	7.565	-0.000	0.000
4633	4626	4625	4619	3	1.715	2.845	1.046	-5.607	-0.000	0.000
4615	4614	4613	4612	3	21.738	2.408	-16.966	-7.180	-0.000	0.000
4620	4619	4616	4615	3	21.738	2.408	-16.966	-7.180	-0.000	0.000
4620	4619	4616	4617	3	-0.778	-2.335	0.000	3.113	-0.000	0.000
4641	4609	4608	4607	3	58.576	0.000	-58.576	-0.000	-0.000	0.000
4637	4611	4610	4609	3	58.576	0.000	-58.576	-0.000	-0.000	0.000
4641	4609	4610	4611	3	58.576	0.000	-58.576	-0.000	-0.000	0.000
4637	4611	4612	4613	3	58.576	0.000	-58.576	-0.000	-0.000	0.000
4626	4615	4614	4613	3	-0.778	-2.335	0.000	3.113	-0.000	0.000
4626	4615	4616	4619	3	58.576	0.000	-58.576	-0.000	-0.000	0.000
4626	4615	4616	4617	3	58.576	0.000	-58.576	-0.000	-0.000	0.000
4638	4641	4609	4608	3	0.527	-6.397	-1.695	7.565	-0.000	0.000
4638	4637	4611	4612	3	0.527	-6.397	-1.695	7.565	-0.000	0.000
4638	4637	4611	4610	3	0.527	-6.397	-1.695	7.565	-0.000	0.000
4638	4641	4609	4610	3	0.527	-6.397	-1.695	7.565	-0.000	0.000
4641	4638	4637	4611	3	2.301	-1.464	0.837	-1.674	-0.000	0.000
4640	4638	4641	4609	3	2.301	-1.464	0.837	-1.674	-0.000	0.000
4637	4638	4641	4609	3	2.301	-1.464	0.837	-1.674	-0.000	0.000
4639	4638	4641	4609	3	2.301	-1.464	0.837	-1.674	-0.000	0.000
4640	4638	4637	4611	3	2.301	-1.464	0.837	-1.674	-0.000	0.000
4639	4638	4637	4611	3	2.301	-1.464	0.837	-1.674	-0.000	0.000
4588	4587	4586	4585	3	1.789	3.492	0.536	-5.816	-0.000	0.000
4626	4625	4619	4616	3	30.334	0.000	-30.334	-0.000	-0.000	0.000
4626	4625	4619	4620	3	30.334	0.000	-30.334	-0.000	-0.000	0.000
4619	4616	4615	4614	3	58.576	0.000	-58.576	-0.000	-0.000	0.000
4619	4625	4626	4615	3	1.715	2.845	1.046	-5.607	-0.000	0.000
4617	4616	4615	4614	3	58.576	0.000	-58.576	-0.000	-0.000	0.000
4621	4620	4619	4616	3	58.576	0.000	-58.576	-0.000	-0.000	0.000
4623	4620	4619	4616	3	58.576	0.000	-58.576	-0.000	-0.000	0.000
4634	4633	4626	4627	3	0.000	0.000	0.000	-0.000	-0.000	0.000
4635	4633	4626	4627	3	0.000	0.000	0.000	-0.000	-0.000	0.000
4636	4633	4626	4627	3	0.000	0.000	0.000	-0.000	-0.000	0.000
4635	4633	4626	4615	3	0.000	0.000	0.000	-0.000	-0.000	0.000
4634	4633	4626	4615	3	0.000	0.000	0.000	-0.000	-0.000	0.000
4636	4633	4626	4615	3	0.000	0.000	0.000	-0.000	-0.000	0.000
4635	4633	4626	4625	3	1.130	3.389	0.000	-4.519	-0.000	0.000
4636	4633	4626	4625	3	1.130	3.389	0.000	-4.519	-0.000	0.000
4634	4633	4626	4625	3	1.130	3.389	0.000	-4.519	-0.000	0.000
4664	4610	4609	4608	3	58.576	0.000	-58.576	-0.000	-0.000	0.000
4664	4610	4611	4612	3	58.576	0.000	-58.576	-0.000	-0.000	0.000
4664	4610	4611	4637	3	58.576	0.000	-58.576	-0.000	-0.000	0.000
4664	4610	4609	4641	3	58.576	0.000	-58.576	-0.000	-0.000	0.000
4653	4595	4594	4593	3	30.334	0.000	-30.334	-0.000	-0.000	0.000
4652	4592	4593	4594	3	30.334	0.000	-30.334	-0.000	-0.000	0.000
4658	4601	4593	4594	3	30.334	0.000	-30.334	-0.000	-0.000	0.000
4657	4600	4594	4593	3	30.334	0.000	-30.334	-0.000	-0.000	0.000
4657	4600	4594	4595	3	30.334	0.000	-30.334	-0.000	-0.000	0.000
4653	4595	4594	4600	3	30.334	0.000	-30.334	-0.000	-0.000	0.000
4652	4592	4593	4601	3	30.334	0.000	-30.334	-0.000	-0.000	0.000
4658	4601	4593	4592	3	30.334	0.000	-30.334	-0.000	-0.000	0.000
4651	4591	4592	4593	3	30.334	0.000	-30.334	-0.000	-0.000	0.000
4659	4602	4601	4593	3	30.334	0.000	-30.334	-0.000	-0.000	0.000
4654	4596	4595	4594	3	30.334	0.000	-30.334	-0.000	-0.000	0.000
4656	4599	4600	4594	3	30.334	0.000	-30.334	-0.000	-0.000	0.000
4661	4605	4606	4607	3	30.334	0.000	-30.334	-0.000	-0.000	0.000
4683	4642	4606	4607	3	30.334	0.000	-30.334	-0.000	-0.000	0.000
4668	4628	4629	4630	3	30.334	0.000	-30.334	-0.000	-0.000	0.000
4656	4599	4597	4596	3	30.334	0.000	-30.334	-0.000	-0.000	0.000
4671	4631	4630	4629	3	30.334	0.000	-30.334	-0.000	-0.000	0.000
4683	4642	4643	4603	3	30.334	0.000	-30.334	-0.000	-0.000	0.000
4669	4629	4628	4627	3	30.334	0.000	-30.334	-0.000	-0.000	0.000
4684	4643	4642	4606	3	30.334	0.000	-30.334	-0.000	-0.000	0.000
4670	4630	4629	4628	3	30.334	0.000	-30.334	-0.000	-0.000	0.000
4659	4602	4590	4591	3	30.334	0.000	-30.334	-0.000	-0.000	0.000
4658	4601	4602	4590	3	30.334	0.000	-30.334	-0.000	-0.000	0.000
4683	4642	4606	4605	3	30.334	0.000	-30.334	-0.000	-0.000	0.000
4684	4643	4603	4604	3	30.334	0.000	-30.334	-0.000	-0.000	0.000
4671	4631	4632	4627	3	30.334	0.000	-30.334	-0.000	-0.000	0.000
4668	4628	4627	4632	3	30.334	0.000	-30.334	-0.000	-0.000	0.000
4653	4595	4596	4597	3	30.334	0.000	-30.334	-0.000	-0.000	0.000
4654	4596	4597	4599	3	30.334	0.000	-30.334	-0.000	-0.000	0.000
4651	4591	4590	4602	3	30.334	0.000	-30.334	-0.000	-0.000	0.000
4660	4604	4603	4643	3	30.334	0.000	-30.334	-0.000	-0.000	0.000
4660	4604	4605	4606	3	30.334	0.000	-30.334	-0.000	-0.000	0.000
4657	4600	4599	4597	3	30.334	0.000	-30.334	-0.000	-0.000	0.000
4661	4605	4606	4642	3	30.334	0.000	-30.334	-0.000	-0.000	0.000
4670	4630	4631	4632	3	30.334	0.000	-30.334	-0.000	-0.000	0.000
4672	4632	4631	4630	3	30.334	0.000	-30.334	-0.000	-0.000	0.000
4669	4629	4630	4631	3	30.334	0.000	-30.334	-0.000	-0.000	0.000
4672	4632	4627	4628	3	30.334	0.000	-30.334	-0.000	-0.000	0.000
4652	4592	4591	4590	3	30.334	0.000	-30.334	-0.000	-0.000	0.000
4661	4605	4604	4603	3	30.334	0.000	-30.334	-0.000	-0.000	0.000
4672	4632	4627	4626	3	30.334	0.000	-30.334	-0.000	-0.000	0.000
4668	4628	4627	4626	3	30.334	0.000	-30.334	-0.000	-0.000	0.000
4661	4605	4604	4660	3	30.334	0.000	-30.334	-0.000	-0.000	0.000
4684	4643	4642	4683	3	30.334	0.000	-30.334	-0.000	-0.000	0.000
4670	4630	4629	4669	3	30.334	0.000	-30.334	-0.000	-0.000	0.000
4654	4596	4595	4653	3	30.334	0.000	-30.334	-0.000	-0.000	0.000
4659	4602	4601	4658	3	30.334	0.000	-30.334	-0.000	-0.000	0.000
4657	4600	4599	4656	3	30.334	0.000	-30.334	-0.000	-0.000	0.000
4669	4629	4628	4668	3	30.334	0.000	-30.334	-0.000	-0.000	0.000
4652	4592	4591	4651	3	30.334	0.000	-30.334	-0.000	-0.000	0.000
4671	4631	4630	4670	3	30.334	0.000	-30.334	-0.000	-0.000	0.000
4672	4632	4631	4671	3	30.334	0.000	-30.334	-0.000	-0.000	0.000
4684	4643	4603	4586	3	30.334	0.000	-30.334	-0.000	-0.000	0.000
4660	4604	4603	4586	3	30.334	0.000	-30.334	-0.000	-0.000	0.000
4654	4596	4597	4598	3	0.0	0.0	0.0	-0.0	-0.0	0.0
4656	4599	4597	4598	3	0.0	0.0	0.0	-0.0	-0.0	0.0
4651	4591	4590	4589	3	30.334	0.000	-30.334	-0.000	-0.000	0.000
4659	4602	4590	4589	3	30.334	0.000	-30.334	-0.000	-0.000	0.000
4665	4612	4611	4610	3	58.576	0.000	-58.576	-0.000	-0.000	0.000
4665	4612	4613	4614	3	58.576	0.000	-58.576	-0.000	-0.000	0.000
4667	4614	4613	4612	3	58.576	0.000	-58.576	-0.000	-0.000	0.000
4666	4613	4612	4611	3	58.576	0.000	-58.576	-0.000	-0.000	0.000
4663	4608	4609	4610	3	58.576	0.000	-58.576	-0.000	-0.000	0.000
4662	4607	4608	4609	3	58.576	0.000	-58.576	-0.000	-0.000	0.000
4663	4608	4607	4606	3	58.576	0.000	-58.576	-0.000	-0.000	0.000
4666	4613	4614	4615	3	58.576	0.000	-58.576	-0.000	-0.000	0.000
4665	4612	4611	4637	3	58.576	0.000	-58.576	-0.000	-0.000	0.000
4663	4608	4609	4641	3	58.576	0.000	-58.576	-0.000	-0.000	0.000
4663	4608	4607	4662	3	58.576	0.000	-58.576	-0.000	-0.000	0.000
4666	4613	4612	4665	3	58.576	0.000	-58.576	-0.000	-0.000	0.000
4667	4614	4613	4666	3	58.576	0.000	-58.576	-0.000	-0.000	0.000
4662	4607	4606	4642	3	-0.778	-2.335	0.000	3.113	-0.000	0.000
4662	4607	4606	4605	3	-0.778	-2.335	0.000	3.113	-0.000	0.000
4667	4614	4615	4616	3	58.576	0.000	-58.576	-0.000	-0.000	0.000
4667	4614	4615	4626	3	58.576	0.000	-58.576	-0.000	-0.000	0.000
4681	4641	4609	4608	3	-0.778	-2.335	0.000	3.113	-0.000	0.000
4681	4641	4609	4610	3	-0.778	-2.335	0.000	3.113	-0.000	0.000
4682	4641	4609	4608	3	-0.778	-2.335	0.000	3.113	-0.000	0.000
4674	4637	4611	4612	3	-0.778	-2.335	0.000	3.113	-0.000	0.000
4682	4641	4609	4610	3	-0.778	-2.335	0.000	3.113	-0.000	0.000
4673	4637	4611	4610	3	-0.778	-2.335	0.000	3.113	-0.000	0.000
4674	4637	4611	4610	3	-0.778	-2.335	0.000	3.113	-0.000	0.000
4673	4637	4611	4612	3	-0.778	-2.335	0.000	3.113	-0.000	0.000
4676	4639	4638	4641	3	0.628	1.883	0.000	-2.510	-0.000	0.000
4675	4639	4638	4640	3	0.628	1.883	0.000	-2.510	-0.000	0.000
4675	4639	4638	4637	3	0.628	1.883	0.000	-2.510	-0.000	0.000
4677	4639	4638	4640	3	0.628	1.883	0.000	-2.510	-0.000	0.000
4679	4640	4638	4637	3	0.628	1.883	0.000	-2.510	-0.000	0.000
4678	4640	4638	4637	3	0.628	1.883	0.000	-2.510	-0.000	0.000
4677	4639	4638	4637	3	0.628	1.883	0.000	-2.510	-0.000	0.000
4679	4640	4638	4639	3	0.628	1.883	0.000	-2.510	-0.000	0.000
4676	4639	4638	4637	3	0.628	1.883	0.000	-2.510	-0.000	0.000
4681	4641	4638	4637	3	0.628	1.883	0.000	-2.510	-0.000	0.000
4681	4641	4638	4639	3	0.628	1.883	0.000	-2.510	-0.000	0.000
4674	4637	4638	4639	3	0.628	1.883	0.000	-2.510	-0.000	0.000
4677	4639	4638	4641	3	0.628	1.883	0.000	-2.510	-0.000	0.000
4674	4637	4638	4640	3	0.628	1.883	0.000	-2.510	-0.000	0.000
4682	4641	4638	4639	3	0.628	1.883	0.000	-2.510	-0.000	0.000
4678	4640	4638	4641	3	0.628	1.883	0.000	-2.510	-0.000	0.000
4679	4640	4638	4641	3	0.628	1.883	0.000	-2.510	-0.000	0.000
4680	4640	4638	4637	3	0.628	1.883	0.000	-2.510	-0.000	0.000
4673	4637	4638	4640	3	0.628	1.883	0.000	-2.510	-0.000	0.000
4673	4637	4638	4639	3	0.628	1.883	0.000	-2.510	-0.000	0.000
4678	4640	4638	4639	3	0.628	1.883	0.000	-2.510	-0.000	0.000
4674	4637	4638	4641	3	0.628	1.883	0.000	-2.510	-0.000	0.000
4682	4641	4638	4640	3	0.628	1.883	0.000	-2.510	-0.000	0.000
4676	4639	4638	4640	3	0.628	1.883	0.000	-2.510	-0.000	0.000
4675	4639	4638	4641	3	0.628	1.883	0.000	-2.510	-0.000	0.000
4682	4641	4638	4637	3	0.628	1.883	0.000	-2.510	-0.000	0.000
4673	4637	4638	4641	3	0.628	1.883	0.000	-2.510	-0.000	0.000
4680	4640	4638	4639	3	0.628	1.883	0.000	-2.510	-0.000	0.000
4681	4641	4638	4640	3	0.628	1.883	0.000	-2.510	-0.000	0.000
4680	4640	4638	4641	3	0.628	1.883	0.000	-2.510	-0.000	0.000
4649	4588	4587	4648	3	0.628	1.883	0.000	-2.510	-0.000	0.000
4650	4588	4587	4647	3	0.628	1.883	0.000	-2.510	-0.000	0.000
4649	4588	4587	4647	3	0.628	1.883	0.000	-2.510	-0.000	0.000
4650	4588	4587	4648	3	0.628	1.883	0.000	-2.510	-0.000	0.000
4650	4588	4587	4586	3	-4.096	5.088	2.966	-3.958	-0.000	0.000
4649	4588	4587	4586	3	-4.096	5.088	2.966	-3.958	-0.000	0.000
4648	4587	4588	4589	3	0.979	2.937	0.000	-3.916	-0.000	0.000
4647	4587	4588	4589	3	0.979	2.937	0.000	-3.916	-0.000	0.000
4648	4587	4586	4603	3	1.172	3.515	0.000	-4.686	-0.000	0.000
4644	4585	4586	4603	3	1.172	3.515	0.000	-4.686	-0.000	0.000
4647	4587	4586	4603	3	1.172	3.515	0.000	-4.686	-0.000	0.000
4645	4585	4586	4603	3	1.172	3.515	0.000	-4.686	-0.000	0.000
4646	4585	4586	4603	3	1.172	3.515	0.000	-4.686	-0.000	0.000
4647	4587	4586	4585	3	1.172	3.515	0.000	-4.686	-0.000	0.000
4645	4585	4586	4587	3	1.172	3.515	0.000	-4.686	-0.000	0.000
4648	4587	4586	4585	3	1.172	3.515	0.000	-4.686	-0.000	0.000
4646	4585	4586	4587	3	1.172	3.515	0.000	-4.686	-0.000	0.000
4644	4585	4586	4587	3	1.172	3.515	0.000	-4.686	-0.000	0.000
4649	4588	4589	4590	3	1.590	4.770	0.000	-6.360	-0.000	0.000
4650	4588	4589	4590	3	1.590	4.770	0.000	-6.360	-0.000	0.000
4655	4598	4597	4599	3	0.0	0.0	0.0	-0.0	-0.0	0.0
4655	4598	4597	4596	3	0.0	0.0	0.0	-0.0	-0.0	0.0
4598	4597	4596	4595	3	0.0	0.0	0.0	-0.0	-0.0	0.0
4625	4626	4615	4614	3	2.874	0.582	2.092	-5.548	-0.000	0.000
4625	4626	4615	4616	3	1.046	-1.046	0.000	-0.000	-0.000	0.000
4589	4588	4587	4586	3	16.736	-16.736	0.000	-0.000	-0.000	0.000
4625	4619	4616	4615	3	1.046	-1.046	0.000	-0.000	-0.000	0.000
4625	4619	4616	4617	3	9.079	0.000	-9.079	-0.000	-0.000	0.000
4694	4693	4692	4691	3	30.334	0.000	-30.334	-0.000	-0.000	0.000
4693	4701	4702	4690	3	30.334	0.000	-30.334	-0.000	-0.000	0.000
4693	4692	4691	4690	3	30.334	0.000	-30.334	-0.000	-0.000	0.000
4714	4713	4712	4711	3	21.738	2.408	-16.966	-7.180	-0.000	0.000
4710	4709	4708	4707	3	21.738	2.408	-16.966	-7.180	-0.000	0.000
4711	4710	4709	4708	3	21.738	2.408	-16.966	-7.180	-0.000	0.000
4712	4711	4710	4709	3	21.738	2.408	-16.966	-7.180	-0.000	0.000
4713	4712	4711	4710	3	21.738	2.408	-16.966	-7.180	-0.000	0.000
4709	4708	4707	4706	3	58.576	0.000	-58.576	-0.000	-0.000	0.000
4708	4707	4706	4705	3	16.027	-4.391	-14.029	2.393	-0.000	0.000
4707	4706	4705	4704	3	30.334	0.000	-30.334	-0.000	-0.000	0.000
4716	4715	4714	4713	3	58.576	0.000	-58.576	-0.000	-0.000	0.000
4701	4693	4694	4700	3	9.079	0.000	-9.079	-0.000	-0.000	0.000
4700	4694	4693	4692	3	9.079	0.000	-9.079	-0.000	-0.000	0.000
4701	4693	4694	4695	3	9.079	0.000	-9.079	-0.000	-0.000	0.000
4695	4694	4693	4692	3	9.079	0.000	-9.079	-0.000	-0.000	0.000
4700	4694	4695	4696	3	30.334	0.000	-30.334	-0.000	-0.000	0.000
4701	4693	4692	4691	3	30.334	0.000	-30.334	-0.000	-0.000	0.000
4699	4700	4694	4693	3	30.334	0.000	-30.334	-0.000	-0.000	0.000
4702	4701	4693	4694	3	30.334	0.000	-30.334	-0.000	-0.000	0.000
4696	4695	4694	4693	3	30.334	0.000	-30.334	-0.000	-0.000	0.000
4699	4700	4694	4695	3	30.334	0.000	-30.334	-0.000	-0.000	0.000
4702	4701	4693	4692	3	30.334	0.000	-30.334	-0.000	-0.000	0.000
4742	4706	4707	4708	3	16.027	-4.391	-14.029	2.393	-0.000	0.000
4697	4699	4700	4694	3	30.334	0.000	-30.334	-0.000	-0.000	0.000
4697	4696	4695	4694	3	30.334	0.000	-30.334	-0.000	-0.000	0.000
4743	4742	4706	4707	3	30.334	0.000	-30.334	-0.000	-0.000	0.000
4732	4727	4728	4729	3	30.334	0.000	-30.334	-0.000	-0.000	0.000
4743	4742	4706	4705	3	30.334	0.000	-30.334	-0.000	-0.000	0.000
4702	4690	4691	4692	3	30.334	0.000	-30.334	-0.000	-0.000	0.000
4742	4743	4703	4704	3	30.334	0.000	-30.334	-0.000	-0.000	0.000
4732	4731	4730	4729	3	30.334	0.000	-30.334	-0.000	-0.000	0.000
4731	4730	4729	4728	3	30.334	0.000	-30.334	-0.000	-0.000	0.000
4730	4729	4728	4727	3	30.334	0.000	-30.334	-0.000	-0.000	0.000
4706	4705	4704	4703	3	30.334	0.000	-30.334	-0.000	-0.000	0.000
4706	4742	4743	4703	3	30.334	0.000	-30.334	-0.000	-0.000	0.000
4743	4703	4704	4705	3	30.334	0.000	-30.334	-0.000	-0.000	0.000
4742	4706	4705	4704	3	30.334	0.000	-30.334	-0.000	-0.000	0.000
4731	4732	4727	4728	3	30.334	0.000	-30.334	-0.000	-0.000	0.000
4700	4699	4697	4696	3	30.334	0.000	-30.334	-0.000	-0.000	0.000
4701	4702	4690	4691	3	30.334	0.000	-30.334	-0.000	-0.000	0.000
4730	4731	4732	4727	3	30.334	0.000	-30.334	-0.000	-0.000	0.000
4699	4697	4696	4695	3	30.334	0.000	-30.334	-0.000	-0.000	0.000
4731	4732	4727	4726	3	30.334	0.000	-30.334	-0.000	-0.000	0.000
4729	4728	4727	4726	3	30.334	0.000	-30.334	-0.000	-0.000	0.000
4742	4743	4703	4686	3	30.334	0.000	-30.334	-0.000	-0.000	0.000
4705	4704	4703	4686	3	30.334	0.000	-30.334	-0.000	-0.000	0.000
4700	4699	4697	4698	3	0.0	0.0	0.0	-0.0	-0.0	0.0
4692	4691	4690	4689	3	30.334	0.000	-30.334	-0.000	-0.000	0.000
4701	4702	4690	4689	3	30.334	0.000	-30.334	-0.000	-0.000	0.000
4732	4727	4726	4715	3	0.000	0.000	0.000	-0.000	-0.000	0.000
4728	4727	4726	4715	3	0.000	0.000	0.000	-0.000	-0.000	0.000
4732	4727	4726	4725	3	0.000	0.000	0.000	-0.000	-0.000	0.000
4728	4727	4726	4725	3	0.000	0.000	0.000	-0.000	-0.000	0.000
4743	4703	4686	4687	3	5.184	35.932	-14.355	-26.761	-0.000	0.000
4704	4703	4686	4687	3	5.184	35.932	-14.355	-26.761	-0.000	0.000
4704	4703	4686	4685	3	5.184	35.932	-14.355	-26.761	-0.000	0.000
4743	4703	4686	4685	3	5.184	35.932	-14.355	-26.761	-0.000	0.000
4691	4690	4689	4688	3	12.552	0.000	-12.552	-0.000	-0.000	0.000
4702	4690	4689	4688	3	12.552	0.000	-12.552	-0.000	-0.000	0.000
4727	4726	4715	4714	3	6.322	-2.485	0.707	-4.544	-0.000	0.000
4727	4726	4715	4716	3	0.527	-6.397	-1.695	7.565	-0.000	0.000
4727	4726	4725	4719	3	1.715	2.845	1.046	-5.607	-0.000	0.000
4703	4686	4687	4688	3	1.789	3.492	0.536	-5.816	-0.000	0.000
4690	4689	4688	4687	3	1.715	2.845	1.046	-5.607	-0.000	0.000
4733	4726	4727	4728	3	0.000	0.000	0.000	-0.000	-0.000	0.000
4733	4726	4727	4732	3	0.000	0.000	0.000	-0.000	-0.000	0.000
4733	4726	4715	4714	3	6.322	-2.485	0.707	-4.544	-0.000	0.000
4733	4726	4715	4716	3	0.527	-6.397	-1.695	7.565	-0.000	0.000
4733	4726	4725	4719	3	1.715	2.845	1.046	-5.607	-0.000	0.000
4715	4714	4713	4712	3	21.738	2.408	-16.966	-7.180	-0.000	0.000
4720	4719	4716	4715	3	21.738	2.408	-16.966	-7.180	-0.000	0.000
4720	4719	4716	4717	3	-0.778	-2.335	0.000	3.113	-0.000	0.000
4741	4709	4708	4707	3	58.576	0.000	-58.576	-0.000	-0.000	0.000
4737	4711	4710	4709	3	58.576	0.000	-58.576	-0.000	-0.000	0.000
4741	4709	4710	4711	3	58.576	0.000	-58.576	-0.000	-0.000	0.000
4737	4711	4712	4713	3	58.576	0.000	-58.576	-0.000	-0.000	0.000
4726	4715	4714	4713	3	-0.778	-2.335	0.000	3.113	-0.000	0.000
4726	4715	4716	4719	3	58.576	0.000	-58.576	-0.000	-0.000	0.000
4726	4715	4716	4717	3	58.576	0.000	-58.576	-0.000	-0.000	0.000
4738	4741	4709	4708	3	0.527	-6.397	-1.695	7.565	-0.000	0.000
4738	4737	4711	4712	3	0.527	-6.397	-1.695	7.565	-0.000	0.000
4738	4737	4711	4710	3	0.527	-6.397	-1.695	7.565	-0.000	0.000
4738	4741	4709	4710	3	0.527	-6.397	-1.695	7.565	-0.000	0.000
4741	4738	4737	4711	3	2.301	-1.464	0.837	-1.674	-0.000	0.000
4740	4738	4741	4709	3	2.301	-1.464	0.837	-1.674	-0.000	0.000
4737	4738	4741	4709	3	2.301	-1.464	0.837	-1.674	-0.000	0.000
4739	4738	4741	4709	3	2.301	-1.464	0.837	-1.674	-0.000	0.000
4740	4738	4737	4711	3	2.301	-1.464	0.837	-1.674	-0.000	0.000
4739	4738	4737	4711	3	2.301	-1.464	0.837	-1.674	-0.000	0.000
4688	4687	4686	4685	3	1.789	3.492	0.536	-5.816	-0.000	0.000
4726	4725	4719	4716	3	30.334	0.000	-30.334	-0.000	-0.000	0.000
4726	4725	4719	4720	3	30.334	0.000	-30.334	-0.000	-0.000	0.000
4719	4716	4715	4714	3	58.576	0.000	-58.576	-0.000	-0.000	0.000
4719	4725	4726	4715	3	1.715	2.845	1.046	-5.607	-0.000	0.000
4717	4716	4715	4714	3	58.576	0.000	-58.576	-0.000	-0.000	0.000
4721	4720	4719	4716	3	58.576	0.000	-58.576	-0.000	-0.000	0.000
4723	4720	4719	4716	3	58.576	0.000	-58.576	-0.000	-0.000	0.000
4734	4733	4726	4727	3	0.000	0.000	0.000	-0.000	-0.000	0.000
4735	4733	4726	4727	3	0.000	0.000	0.000	-0.000	-0.000	0.000
4736	4733	4726	4727	3	0.000	0.000	0.000	-0.000	-0.000	0.000
4735	4733	4726	4715	3	0.000	0.000	0.000	-0.000	-0.000	0.000
4734	4733	4726	4715	3	0.000	0.000	0.000	-0.000	-0.000	0.000
4736	4733	4726	4715	3	0.000	0.000	0.000	-0.000	-0.000	0.000
4735	4733	4726	4725	3	1.130	3.389	0.000	-4.519	-0.000	0.000
4736	4733	4726	4725	3	1.130	3.389	0.000	-4.519	-0.000	0.000
4734	4733	4726	4725	3	1.130	3.389	0.000	-4.519	-0.000	0.000
4764	4710	4709	4708	3	58.576	0.000	-58.576	-0.000	-0.000	0.000
4764	4710	4711	4712	3	58.576	0.000	-58.576	-0.000	-0.000	0.000
4764	4710	4711	4737	3	58.576	0.000	-58.576	-0.000	-0.000	0.000
4764	4710	4709	4741	3	58.576	0.000	-58.576	-0.000	-0.000	0.000
4753	4695	4694	4693	3	30.334	0.000	-30.334	-0.000	-0.000	0.000
4752	4692	4693	4694	3	30.334	0.000	-30.334	-0.000	-0.000	0.000
4758	4701	4693	4694	3	30.334	0.000	-30.334	-0.000	-0.000	0.000
4757	4700	4694	4693	3	30.334	0.000	-30.334	-0.000	-0.000	0.000
4757	4700	4694	4695	3	30.334	0.000	-30.334	-0.000	-0.000	0.000
4753	4695	4694	4700	3	30.334	0.000	-30.334	-0.000	-0.000	0.000
4752	4692	4693	4701	3	30.334	0.000	-30.334	-0.000	-0.000	0.000
4758	4701	4693	4692	3	30.334	0.000	-30.334	-0.000	-0.000	0.000
4751	4691	4692	4693	3	30.334	0.000	-30.334	-0.000	-0.000	0.000
4759	4702	4701	4693	3	30.334	0.000	-30.334	-0.000	-0.000	0.000
4754	4696	4695	4694	3	30.334	0.000	-30.334	-0.000	-0.000	0.000
4756	4699	4700	4694	3	30.334	0.000	-30.334	-0.000	-0.000	0.000
4761	4705	4706	4707	3	30.334	0.000	-30.334	-0.000	-0.000	0.000
4783	4742	4706	4707	3	30.334	0.000	-30.334	-0.000	-0.000	0.000
4768	4728	4729	4730	3	30.334	0.000	-30.334	-0.000	-0.000	0.000
4756	4699	4697	4696	3	30.334	0.000	-30.334	-0.000	-0.000	0.000
4771	4731	4730	4729	3	30.334	0.000	-30.334	-0.000	-0.000	0.000
4783	4742	4743	4703	3	30.334	0.000	-30.334	-0.000	-0.000	0.000
4769	4729	4728	4727	3	30.334	0.000	-30.334	-0.000	-0.000	0.000
4784	4743	4742	4706	3	30.334	0.000	-30.334	-0.000	-0.000	0.000
4770	4730	4729	4728	3	30.334	0.000	-30.334	-0.000	-0.000	0.000
4759	4702	4690	4691	3	30.334	0.000	-30.334	-0.000	-0.000	0.000
4758	4701	4702	4690	3	30.334	0.000	-30.334	-0.000	-0.000	0.000
4783	4742	4706	4705	3	30.334	0.000	-30.334	-0.000	-0.000	0.000
4784	4743	4703	4704	3	30.334	0.000	-30.334	-0.000	-0.000	0.000
4771	4731	4732	4727	3	30.334	0.000	-30.334	-0.000	-0.000	0.000
4768	4728	4727	4732	3	30.334	0.000	-30.334	-0.000	-0.000	0.000
4753	4695	4696	4697	3	30.334	0.000	-30.334	-0.000	-0.000	0.000
4754	4696	4697	4699	3	30.334	0.000	-30.334	-0.000	-0.000	0.000
4751	4691	4690	4702	3	30.334	0.000	-30.334	-0.000	-0.000	0.000
4760	4704	4703	4743	3	30.334	0.000	-30.334	-0.000	-0.000	0.000
4760	4704	4705	4706	3	30.334	0.000	-30.334	-0.000	-0.000	0.000
4757	4700	4699	4697	3	30.334	0.000	-30.334	-0.000	-0.000	0.000
4761	4705	4706	4742	3	30.334	0.000	-30.334	-0.000	-0.000	0.000
4770	4730	4731	4732	3	30.334	0.000	-30.334	-0.000	-0.000	0.000
4772	4732	4731	4730	3	30.334	0.000	-30.334	-0.000	-0.000	0.000
4769	4729	4730	4731	3	30.334	0.000	-30.334	-0.000	-0.000	0.000
4772	4732	4727	4728	3	30.334	0.000	-30.334	-0.000	-0.000	0.000
4752	4692	4691	4690	3	30.334	0.000	-30.334	-0.000	-0.000	0.000
4761	4705	4704	4703	3	30.334	0.000	-30.334	-0.000	-0.000	0.000
4772	4732	4727	4726	3	30.334	0.000	-30.334	-0.000	-0.000	0.000
4768	4728	4727	4726	3	30.334	0.000	-30.334	-0.000	-0.000	0.000
4761	4705	4704	4760	3	30.334	0.000	-30.334	-0.000	-0.000	0.000
4784	4743	4742	4783	3	30.334	0.000	-30.334	-0.000	-0.000	0.000
4770	4730	4729	4769	3	30.334	0.000	-30.334	-0.000	-0.000	0.000
4754	4696	4695	4753	3	30.334	0.000	-30.334	-0.000	-0.000	0.000
4759	4702	4701	4758	3	30.334	0.000	-30.334	-0.000	-0.000	0.000
4757	4700	4699	4756	3	30.334	0.000	-30.334	-0.000	-0.000	0.000
4769	4729	4728	4768	3	30.334	0.000	-30.334	-0.000	-0.000	0.000
4752	4692	4691	4751	3	30.334	0.000	-30.334	-0.000	-0.000	0.000
4771	4731	4730	4770	3	30.334	0.000	-30.334	-0.000	-0.000	0.000
4772	4732	4731	4771	3	30.334	0.000	-30.334	-0.000	-0.000	0.000
4784	4743	4703	4686	3	30.334	0.000	-30.334	-0.000	-0.000	0.000
4760	4704	4703	4686	3	30.334	0.000	-30.334	-0.000	-0.000	0.000
4754	4696	4697	4698	3	0.0	0.0	0.0	-0.0	-0.0	0.0
4756	4699	4697	4698	3	0.0	0.0	0.0	-0.0	-0.0	0.0
4751	4691	4690	4689	3	30.334	0.000	-30.334	-0.000	-0.000	0.000
4759	4702	4690	4689	3	30.334	0.000	-30.334	-0.000	-0.000	0.000
4765	4712	4711	4710	3	58.576	0.000	-58.576	-0.000	-0.000	0.000
4765	4712	4713	4714	3	58.576	0.000	-58.576	-0.000	-0.000	0.000
4767	4714	4713	4712	3	58.576	0.000	-58.576	-0.000	-0.000	0.000
4766	4713	4712	4711	3	58.576	0.000	-58.576	-0.000	-0.000	0.000
4763	4708	4709	4710	3	58.576	0.000	-58.576	-0.000	-0.000	0.000
4762	4707	4708	4709	3	58.576	0.000	-58.576	-0.000	-0.000	0.000
4763	4708	4707	4706	3	58.576	0.000	-58.576	-0.000	-0.000	0.000
4766	4713	4714	4715	3	58.576	0.000	-58.576	-0.000	-0.000	0.000
4765	4712	4711	4737	3	58.576	0.000	-58.576	-0.000	-0.000	0.000
4763	4708	4709	4741	3	58.576	0.000	-58.576	-0.000	-0.000	0.000
4763	4708	4707	4762	3	58.576	0.000	-58.576	-0.000	-0.000	0.000
4766	4713	4712	4765	3	58.576	0.000	-58.576	-0.000	-0.000	0.000
4767	4714	4713	4766	3	58.576	0.000	-58.576	-0.000	-0.000	0.000
4762	4707	4706	4742	3	-0.778	-2.335	0.000	3.113	-0.000	0.000
4762	4707	4706	4705	3	-0.778	-2.335	0.000	3.113	-0.000	0.000
4767	4714	4715	4716	3	58.576	0.000	-58.576	-0.000	-0.000	0.000
4767	4714	4715	4726	3	58.576	0.000	-58.576	-0.000	-0.000	0.000
4781	4741	4709	4708	3	-0.778	-2.335	0.000	3.113	-0.000	0.000
4781	4741	4709	4710	3	-0.778	-2.335	0.000	3.113	-0.000	0.000
4782	4741	4709	4708	3	-0.778	-2.335	0.000	3.113	-0.000	0.000
4774	4737	4711	4712	3	-0.778	-2.335	0.000	3.113	-0.000	0.000
4782	4741	4709	4710	3	-0.778	-2.335	0.000	3.113	-0.000	0.000
4773	4737	4711	4710	3	-0.778	-2.335	0.000	3.113	-0.000	0.000
4774	4737	4711	4710	3	-0.778	-2.335	0.000	3.113	-0.000	0.000
4773	4737	4711	4712	3	-0.778	-2.335	0.000	3.113	-0.000	0.000
4776	4739	4738	4741	3	0.628	1.883	0.000	-2.510	-0.000	0.000
4775	4739	4738	4740	3	0.628	1.883	0.000	-2.510	-0.000	0.000
4775	4739	4738	4737	3	0.628	1.883	0.000	-2.510	-0.000	0.000
4777	4739	4738	4740	3	0.628	1.883	0.000	-2.510	-0.000	0.000
4779	4740	4738	4737	3	0.628	1.883	0.000	-2.510	-0.000	0.000
4778	4740	4738	4737	3	0.628	1.883	0.000	-2.510	-0.000	0.000
4777	4739	4738	4737	3	0.628	1.883	0.000	-2.510	-0.000	0.000
4779	4740	4738	4739	3	0.628	1.883	0.000	-2.510	-0.000	0.000
4776	4739	4738	4737	3	0.628	1.883	0.000	-2.510	-0.000	0.000
4781	4741	4738	4737	3	0.628	1.883	0.000	-2.510	-0.000	0.000
4781	4741	4738	4739	3	0.628	1.883	0.000	-2.510	-0.000	0.000
4774	4737	4738	4739	3	0.628	1.883	0.000	-2.510	-0.000	0.000
4777	4739	4738	4741	3	0.628	1.883	0.000	-2.510	-0.000	0.000
4774	4737	4738	4740	3	0.628	1.883	0.000	-2.510	-0.000	0.000
4782	4741	4738	4739	3	0.628	1.883	0.000	-2.510	-0.000	0.000
4778	4740	4738	4741	3	0.628	1.883	0.000	-2.510	-0.000	0.000
4779	4740	4738	4741	3	0.628	1.883	0.000	-2.510	-0.000	0.000
4780	4740	4738	4737	3	0.628	1.883	0.000	-2.510	-0.000	0.000
4773	4737	4738	4740	3	0.628	1.883	0.000	-2.510	-0.000	0.000
4773	4737	4738	4739	3	0.628	1.883	0.000	-2.510	-0.000	0.000
4778	4740	4738	4739	3	0.628	1.883	0.000	-2.510	-0.000	0.000
4774	4737	4738	4741	3	0.628	1.883	0.000	-2.510	-0.000	0.000
4782	4741	4738	4740	3	0.628	1.883	0.000	-2.510	-0.000	0.000
4776	4739	4738	4740	3	0.628	1.883	0.000	-2.510	-0.000	0.000
4775	4739	4738	4741	3	0.628	1.883	0.000	-2.510	-0.000	0.000
4782	4741	4738	4737	3	0.628	1.883	0.000	-2.510	-0.000	0.000
4773	4737	4738	4741	3	0.628	1.883	0.000	-2.510	-0.000	0.000
4780	4740	4738	4739	3	0.628	1.883	0.000	-2.510	-0.000	0.000
4781	4741	4738	4740	3	0.628	1.883	0.000	-2.510	-0.000	0.000
4780	4740	4738	4741	3	0.628	1.883	0.000	-2.510	-0.000	0.000
4749	4688	4687	4748	3	0.628	1.883	0.000	-2.510	-0.000	0.000
4750	4688	4687	4747	3	0.628	1.883	0.000	-2.510	-0.000	0.000
4749	4688	4687	4747	3	0.628	1.883	0.000	-2.510	-0.000	0.000
4750	4688	4687	4748	3	0.628	1.883	0.000	-2.510	-0.000	0.000
4750	4688	4687	4686	3	-4.096	5.088	2.966	-3.958	-0.000	0.000
4749	4688	4687	4686	3	-4.096	5.088	2.966	-3.958	-0.000	0.000
4748	4687	4688	4689	3	0.979	2.937	0.000	-3.916	-0.000	0.000
4747	4687	4688	4689	3	0.979	2.937	0.000	-3.916	-0.000	0.000
4748	4687	4686	4703	3	1.172	3.515	0.000	-4.686	-0.000	0.000
4744	4685	4686	4703	3	1.172	3.515	0.000	-4.686	-0.000	0.000
4747	4687	4686	4703	3	1.172	3.515	0.000	-4.686	-0.000	0.000
4745	4685	4686	4703	3	1.172	3.515	0.000	-4.686	-0.000	0.000
4746	4685	4686	4703	3	1.172	3.515	0.000	-4.686	-0.000	0.000
4747	4687	4686	4685	3	1.172	3.515	0.000	-4.686	-0.000	0.000
4745	4685	4686	4687	3	1.172	3.515	0.000	-4.686	-0.000	0.000
4748	4687	4686	4685	3	1.172	3.515	0.000	-4.686	-0.000	0.000
4746	4685	4686	4687	3	1.172	3.515	0.000	-4.686	-0.000	0.000
4744	4685	4686	4687	3	1.172	3.515	0.000	-4.686	-0.000	0.000
4749	4688	4689	4690	3	1.590	4.770	0.000	-6.360	-0.000	0.000
4750	4688	4689	4690	3	1.590	4.770	0.000	-6.360	-0.000	0.000
4755	4698	4697	4699	3	0.0	0.0	0.0	-0.0	-0.0	0.0
4755	4698	4697	4696	3	0.0	0.0	0.0	-0.0	-0.0	0.0
4698	4697	4696	4695	3	0.0	0.0	0.0	-0.0	-0.0	0.0
4725	4726	4715	4714	3	2.874	0.582	2.092	-5.548	-0.000	0.000
4725	4726	4715	4716	3	1.046	-1.046	0.000	-0.000	-0.000	0.000
4689	4688	4687	4686	3	16.736	-16.736	0.000	-0.000	-0.000	0.000
4725	4719	4716	4715	3	1.046	-1.046	0.000	-0.000	-0.000	0.000
4725	4719	4716	4717	3	9.079	0.000	-9.079	-0.000	-0.000	0.000
4794	4793	4792	4791	3	30.334	0.000	-30.334	-0.000	-0.000	0.000
4793	4801	4802	4790	3	30.334	0.000	-30.334	-0.000	-0.000	0.000
4793	4792	4791	4790	3	30.334	0.000	-30.334	-0.000	-0.000	0.000
4814	4813	4812	4811	3	21.738	2.408	-16.966	-7.180	-0.000	0.000
4810	4809	4808	4807	3	21.738	2.408	-16.966	-7.180	-0.000	0.000
4811	4810	4809	4808	3	21.738	2.408	-16.966	-7.180	-0.000	0.000
4812	4811	4810	4809	3	21.738	2.408	-16.966	-7.180	-0.000	0.000
4813	4812	4811	4810	3	21.738	2.408	-16.966	-7.180	-0.000	0.000
4809	4808	4807	4806	3	58.576	0.000	-58.576	-0.000	-0.000	0.000
4808	4807	4806	4805	3	16.027	-4.391	-14.029	2.393	-0.000	0.000
4807	4806	4805	4804	3	30.334	0.000	-30.334	-0.000	-0.000	0.000
4816	4815	4814	4813	3	58.576	0.000	-58.576	-0.000	-0.000	0.000
4801	4793	4794	4800	3	9.079	0.000	-9.079	-0.000	-0.000	0.000
4800	4794	4793	4792	3	9.079	0.000	-9.079	-0.000	-0.000	0.000
4801	4793	4794	4795	3	9.079	0.000	-9.079	-0.000	-0.000	0.000
4795	4794	4793	4792	3	9.079	0.000	-9.079	-0.000	-0.000	0.000
4800	4794	4795	4796	3	30.334	0.000	-30.334	-0.000	-0.000	0.000
4801	4793	4792	4791	3	30.334	0.000	-30.334	-0.000	-0.000	0.000
4799	4800	4794	4793	3	30.334	0.000	-30.334	-0.000	-0.000	0.000
4802	4801	4793	4794	3	30.334	0.000	-30.334	-0.000	-0.000	0.000
4796	4795	4794	4793	3	30.334	0.000	-30.334	-0.000	-0.000	0.000
4799	4800	4794	4795	3	30.334	0.000	-30.334	-0.000	-0.000	0.000
4802	4801	4793	4792	3	30.334	0.000	-30.334	-0.000	-0.000	0.000
4842	4806	4807	4808	3	16.027	-4.391	-14.029	2.393	-0.000	0.000
4797	4799	4800	4794	3	30.334	0.000	-30.334	-0.000	-0.000	0.000
4797	4796	4795	4794	3	30.334	0.000	-30.334	-0.000	-0.000	0.000
4843	4842	4806	4807	3	30.334	0.000	-30.334	-0.000	-0.000	0.000
4832	4827	4828	4829	3	30.334	0.000	-30.334	-0.000	-0.000	0.000
4843	4842	4806	4805	3	30.334	0.000	-30.334	-0.000	-0.000	0.000
4802	4790	4791	4792	3	30.334	0.000	-30.334	-0.000	-0.000	0.000
4842	4843	4803	4804	3	30.334	0.000	-30.334	-0.000	-0.000	0.000
4832	4831	4830	4829	3	30.334	0.000	-30.334	-0.000	-0.000	0.000
4831	4830	4829	4828	3	30.334	0.000	-30.334	-0.000	-0.000	0.000
4830	4829	4828	4827	3	30.334	0.000	-30.334	-0.000	-0.000	0.000
4806	4805	4804	4803	3	30.334	0.000	-30.334	-0.000	-0.000	0.000
4806	4842	4843	4803	3	30.334	0.000	-30.334	-0.000	-0.000	0.000
4843	4803	4804	4805	3	30.334	0.000	-30.334	-0.000	-0.000	0.000
4842	4806	4805	4804	3	30.334	0.000	-30.334	-0.000	-0.000	0.000
4831	4832	4827	4828	3	30.334	0.000	-30.334	-0.000	-0.000	0.000
4800	4799	4797	4796	3	30.334	0.000	-30.334	-0.000	-0.000	0.000
4801	4802	4790	4791	3	30.334	0.000	-30.334	-0.000	-0.000	0.000
4830	4831	4832	4827	3	30.334	0.000	-30.334	-0.000	-0.000	0.000
4799	4797	4796	4795	3	30.334	0.000	-30.334	-0.000	-0.000	0.000
4831	4832	4827	4826	3	30.334	0.000	-30.334	-0.000	-0.000	0.000
4829	4828	4827	4826	3	30.334	0.000	-30.334	-0.000	-0.000	0.000
4842	4843	4803	4786	3	30.334	0.000	-30.334	-0.000	-0.000	0.000
4805	4804	4803	4786	3	30.334	0.000	-30.334	-0.000	-0.000	0.000
4800	4799	4797	4798	3	0.0	0.0	0.0	-0.0	-0.0	0.0
4792	4791	4790	4789	3	30.334	0.000	-30.334	-0.000	-0.000	0.000
4801	4802	4790	4789	3	30.334	0.000	-30.334	-0.000	-0.000	0.000
4832	4827	4826	4815	3	0.000	0.000	0.000	-0.000	-0.000	0.000
4828	4827	4826	4815	3	0.000	0.000	0.000	-0.000	-0.000	0.000
4832	4827	4826	4825	3	0.000	0.000	0.000	-0.000	-0.000	0.000
4828	4827	4826	4825	3	0.000	0.000	0.000	-0.000	-0.000	0.000
4843	4803	4786	4787	3	5.184	35.932	-14.355	-26.761	-0.000	0.000
4804	4803	4786	4787	3	5.184	35.932	-14.355	-26.761	-0.000	0.000
4804	4803	4786	4785	3	5.184	35.932	-14.355	-26.761	-0.000	0.000
4843	4803	4786	4785	3	5.184	35.932	-14.355	-26.761	-0.000	0.000
4791	4790	4789	4788	3	12.552	0.000	-12.552	-0.000	-0.000	0.000
4802	4790	4789	4788	3	12.552	0.000	-12.552	-0.000	-0.000	0.000
4827	4826	4815	4814	3	6.322	-2.485	0.707	-4.544	-0.000	0.000
4827	4826	4815	4816	3	0.527	-6.397	-1.695	7.565	-0.000	0.000
4827	4826	4825	4819	3	1.715	2.845	1.046	-5.607	-0.000	0.000
4803	4786	4787	4788	3	1.789	3.492	0.536	-5.816	-0.000	0.000
4790	4789	4788	4787	3	1.715	2.845	1.046	-5.607	-0.000	0.000
4833	4826	4827	4828	3	0.000	0.000	0.000	-0.000	-0.000	0.000
4833	4826	4827	4832	3	0.000	0.000	0.000	-0.000	-0.000	0.000
4833	4826	4815	4814	3	6.322	-2.485	0.707	-4.544	-0.000	0.000
4833	4826	4815	4816	3	0.527	-6.397	-1.695	7.565	-0.000	0.000
4833	4826	4825	4819	3	1.715	2.845	1.046	-5.607	-0.000	0.000
4815	4814	4813	4812	3	21.738	2.408	-16.966	-7.180	-0.000	0.000
4820	4819	4816	4815	3	21.738	2.408	-16.966	-7.180	-0.000	0.000
4820	4819	4816	4817	3	-0.778	-2.335	0.000	3.113	-0.000	0.000
4841	4809	4808	4807	3	58.576	0.000	-58.576	-0.000	-0.000	0.000
4837	4811	4810	4809	3	58.576	0.000	-58.576	-0.000	-0.000	0.000
4841	4809	4810	4811	3	58.576	0.000	-58.576	-0.000	-0.000	0.000
4837	4811	4812	4813	3	58.576	0.000	-58.576	-0.000	-0.000	0.000
4826	4815	4814	4813	3	-0.778	-2.335	0.000	3.113	-0.000	0.000
4826	4815	4816	4819	3	58.576	0.000	-58.576	-0.000	-0.000	0.000
4826	4815	4816	4817	3	58.576	0.000	-58.576	-0.000	-0.000	0.000
4838	4841	4809	4808	3	0.527	-6.397	-1.695	7.565	-0.000	0.000
4838	4837	4811	4812	3	0.527	-6.397	-1.695	7.565	-0.000	0.000
4838	4837	4811	4810	3	0.527	-6.397	-1.695	7.565	-0.000	0.000
4838	4841	4809	4810	3	0.527	-6.397	-1.695	7.565	-0.000	0.000
4841	4838	4837	4811	3	2.301	-1.464	0.837	-1.674	-0.000	0.000
4840	4838	4841	4809	3	2.301	-1.464	0.837	-1.674	-0.000	0.000
4837	4838	4841	4809	3	2.301	-1.464	0.837	-1.674	-0.000	0.000
4839	4838	4841	4809	3	2.301	-1.464	0.837	-1.674	-0.000	0.000
4840	4838	4837	4811	3	2.301	-1.464	0.837	-1.674	-0.000	0.000
4839	4838	4837	4811	3	2.301	-1.464	0.837	-1.674	-0.000	0.000
4788	4787	4786	4785	3	1.789	3.492	0.536	-5.816	-0.000	0.000
4826	4825	4819	4816	3	30.334	0.000	-30.334	-0.000	-0.000	0.000
4826	4825	4819	4820	3	30.334	0.000	-30.334	-0.000	-0.000	0.000
4819	4816	4815	4814	3	58.576	0.000	-58.576	-0.000	-0.000	0.000
4819	4825	4826	4815	3	1.715	2.845	1.046	-5.607	-0.000	0.000
4817	4816	4815	4814	3	58.576	0.000	-58.576	-0.000	-0.000	0.000
4821	4820	4819	4816	3	58.576	0.000	-58.576	-0.000	-0.000	0.000
4823	4820	4819	4816	3	58.576	0.000	-58.576	-0.000	-0.000	0.000
4834	4833	4826	4827	3	0.000	0.000	0.000	-0.000	-0.000	0.000
4835	4833	4826	4827	3	0.000	0.000	0.000	-0.000	-0.000	0.000
4836	4833	4826	4827	3	0.000	0.000	0.000	-0.000	-0.000	0.000
4835	4833	4826	4815	3	0.000	0.000	0.000	-0.000	-0.000	0.000
4834	4833	4826	4815	3	0.000	0.000	0.000	-0.000	-0.000	0.000
4836	4833	4826	4815	3	0.000	0.000	0.000	-0.000	-0.000	0.000
4835	4833	4826	4825	3	1.130	3.389	0.000	-4.519	-0.000	0.000
4836	4833	4826	4825	3	1.130	3.389	0.000	-4.519	-0.000	0.000
4834	4833	4826	4825	3	1.130	3.389	0.000	-4.519	-0.000	0.000
4864	4810	4809	4808	3	58.576	0.000	-58.576	-0.000	-0.000	0.000
4864	4810	4811	4812	3	58.576	0.000	-58.576	-0.000	-0.000	0.000
4864	4810	4811	4837	3	58.576	0.000	-58.576	-0.000	-0.000	0.000
4864	4810	4809	4841	3	58.576	0.000	-58.576	-0.000	-0.000	0.000
4853	4795	4794	4793	3	30.334	0.000	-30.334	-0.000	-0.000	0.000
4852	4792	4793	4794	3	30.334	0.000	-30.334	-0.000	-0.000	0.000
4858	4801	4793	4794	3	30.334	0.000	-30.334	-0.000	-0.000	0.000
4857	4800	4794	4793	3	30.334	0.000	-30.334	-0.000	-0.000	0.000
4857	4800	4794	4795	3	30.334	0.000	-30.334	-0.000	-0.000	0.000
4853	4795	4794	4800	3	30.334	0.000	-30.334	-0.000	-0.000	0.000
4852	4792	4793	4801	3	30.334	0.000	-30.334	-0.000	-0.000	0.000
4858	4801	4793	4792	3	30.334	0.000	-30.334	-0.000	-0.000	0.000
4851	4791	4792	4793	3	30.334	0.000	-30.334	-0.000	-0.000	0.000
4859	4802	4801	4793	3	30.334	0.000	-30.334	-0.000	-0.000	0.000
4854	4796	4795	4794	3	30.334	0.000	-30.334	-0.000	-0.000	0.000
4856	4799	4800	4794	3	30.334	0.000	-30.334	-0.000	-0.000	0.000
4861	4805	4806	4807	3	30.334	0.000	-30.334	-0.000	-0.000	0.000
4883	4842	4806	4807	3	30.334	0.000	-30.334	-0.000	-0.000	0.000
4868	4828	4829	4830	3	30.334	0.000	-30.334	-0.000	-0.000	0.000
4856	4799	4797	4796	3	30.334	0.000	-30.334	-0.000	-0.000	0.000
4871	4831	4830	4829	3	30.334	0.000	-30.334	-0.000	-0.000	0.000
4883	4842	4843	4803	3	30.334	0.000	-30.334	-0.000	-0.000	0.000
4869	4829	4828	4827	3	30.334	0.000	-30.334	-0.000	-0.000	0.000
4884	4843	4842	4806	3	30.334	0.000	-30.334	-0.000	-0.000	0.000
4870	4830	4829	4828	3	30.334	0.000	-30.334	-0.000	-0.000	0.000
4859	4802	4790	4791	3	30.334	0.000	-30.334	-0.000	-0.000	0.000
4858	4801	4802	4790	3	30.334	0.000	-30.334	-0.000	-0.000	0.000
4883	4842	4806	4805	3	30.334	0.000	-30.334	-0.000	-0.000	0.000
4884	4843	4803	4804	3	30.334	0.000	-30.334	-0.000	-0.000	0.000
4871	4831	4832	4827	3	30.334	0.000	-30.334	-0.000	-0.000	0.000
4868	4828	4827	4832	3	30.334	0.000	-30.334	-0.000	-0.000	0.000
4853	4795	4796	4797	3	30.334	0.000	-30.334	-0.000	-0.000	0.000
4854	4796	4797	4799	3	30.334	0.000	-30.334	-0.000	-0.000	0.000
4851	4791	4790	4802	3	30.334	0.000	-30.334	-0.000	-0.000	0.000
4860	4804	4803	4843	3	30.334	0.000	-30.334	-0.000	-0.000	0.000
4860	4804	4805	4806	3	30.334	0.000	-30.334	-0.000	-0.000	0.000
4857	4800	4799	4797	3	30.334	0.000	-30.334	-0.000	-0.000	0.000
4861	4805	4806	4842	3	30.334	0.000	-30.334	-0.000	-0.000	0.000
4870	4830	4831	4832	3	30.334	0.000	-30.334	-0.000	-0.000	0.000
4872	4832	4831	4830	3	30.334	0.000	-30.334	-0.000	-0.000	0.000
4869	4829	4830	4831	3	30.334	0.000	-30.334	-0.000	-0.000	0.000
4872	4832	4827	4828	3	30.334	0.000	-30.334	-0.000	-0.000	0.000
4852	4792	4791	4790	3	30.334	0.000	-30.334	-0.000	-0.000	0.000
4861	4805	4804	4803	3	30.334	0.000	-30.334	-0.000	-0.000	0.000
4872	4832	4827	4826	3	30.334	0.000	-30.334	-0.000	-0.000	0.000
4868	4828	4827	4826	3	30.334	0.000	-30.334	-0.000	-0.000	0.000
4861	4805	4804	4860	3	30.334	0.000	-30.334	-0.000	-0.000	0.000
4884	4843	4842	4883	3	30.334	0.000	-30.334	-0.000	-0.000	0.000
4870	4830	4829	4869	3	30.334	0.000	-30.334	-0.000	-0.000	0.000
4854	4796	4795	4853	3	30.334	0.000	-30.334	-0.000	-0.000	0.000
4859	4802	4801	4858	3	30.334	0.000	-30.334	-0.000	-0.000	0.000
4857	4800	4799	4856	3	30.334	0.000	-30.334	-0.000	-0.000	0.000
4869	4829	4828	4868	3	30.334	0.000	-30.334	-0.000	-0.000	0.000
4852	4792	4791	4851	3	30.334	0.000	-30.334	-0.000	-0.000	0.000
4871	4831	4830	4870	3	30.334	0.000	-30.334	-0.000	-0.000	0.000
4872	4832	4831	4871	3	30.334	0.000	-30.334	-0.000	-0.000	0.000
4884	4843	4803	4786	3	30.334	0.000	-30.334	-0.000	-0.000	0.000
4860	4804	4803	4786	3	30.334	0.000	-30.334	-0.000	-0.000	0.000
4854	4796	4797	4798	3	0.0	0.0	0.0	-0.0	-0.0	0.0
4856	4799	4797	4798	3	0.0	0.0	0.0	-0.0	-0.0	0.0
4851	4791	4790	4789	3	30.334	0.000	-30.334	-0.000	-0.000	0.000
4859	4802	4790	4789	3	30.334	0.000	-30.334	-0.000	-0.000	0.000
4865	4812	4811	4810	3	58.576	0.000	-58.576	-0.000	-0.000	0.000
4865	4812	4813	4814	3	58.576	0.000	-58.576	-0.000	-0.000	0.000
4867	4814	4813	4812	3	58.576	0.000	-58.576	-0.000	-0.000	0.000
4866	4813	4812	4811	3	58.576	0.000	-58.576	-0.000	-0.000	0.000
4863	4808	4809	4810	3	58.576	0.000	-58.576	-0.000	-0.000	0.000
4862	4807	4808	4809	3	58.576	0.000	-58.576	-0.000	-0.000	0.000
4863	4808	4807	4806	3	58.576	0.000	-58.576	-0.000	-0.000	0.000
4866	4813	4814	4815	3	58.576	0.000	-58.576	-0.000	-0.000	0.000
4865	4812	4811	4837	3	58.576	0.000	-58.576	-0.000	-0.000	0.000
4863	4808	4809	4841	3	58.576	0.000	-58.576	-0.000	-0.000	0.000
4863	4808	4807	4862	3	58.576	0.000	-58.576	-0.000	-0.000	0.000
4866	4813	4812	4865	3	58.576	0.000	-58.576	-0.000	-0.000	0.000
4867	4814	4813	4866	3	58.576	0.000	-58.576	-0.000	-0.000	0.000
4862	4807	4806	4842	3	-0.778	-2.335	0.000	3.113	-0.000	0.000
4862	4807	4806	4805	3	-0.778	-2.335	0.000	3.113	-0.000	0.000
4867	4814	4815	4816	3	58.576	0.000	-58.576	-0.000	-0.000	0.000
4867	4814	4815	4826	3	58.576	0.000	-58.576	-0.000	-0.000	0.000
4881	4841	4809	4808	3	-0.778	-2.335	0.000	3.113	-0.000	0.000
4881	4841	4809	4810	3	-0.778	-2.335	0.000	3.113	-0.000	0.000
4882	4841	4809	4808	3	-0.778	-2.335	0.000	3.113	-0.000	0.000
4874	4837	4811	4812	3	-0.778	-2.335	0.000	3.113	-0.000	0.000
4882	4841	4809	4810	3	-0.778	-2.335	0.000	3.113	-0.000	0.000
4873	4837	4811	4810	3	-0.778	-2.335	0.000	3.113	-0.000	0.000
4874	4837	4811	4810	3	-0.778	-2.335	0.000	3.113	-0.000	0.000
4873	4837	4811	4812	3	-0.778	-2.335	0.000	3.113	-0.000	0.000
4876	4839	4838	4841	3	0.628	1.883	0.000	-2.510	-0.000	0.000
4875	4839	4838	4840	3	0.628	1.883	0.000	-2.510	-0.000	0.000
4875	4839	4838	4837	3	0.628	1.883	0.000	-2.510	-0.000	0.000
4877	4839	4838	4840	3	0.628	1.883	0.000	-2.510	-0.000	0.000
4879	4840	4838	4837	3	0.628	1.883	0.000	-2.510	-0.000	0.000
4878	4840	4838	4837	3	0.628	1.883	0.000	-2.510	-0.000	0.000
4877	4839	4838	4837	3	0.628	1.883	0.000	-2.510	-0.000	0.000
4879	4840	4838	4839	3	0.628	1.883	0.000	-2.510	-0.000	0.000
4876	4839	4838	4837	3	0.628	1.883	0.000	-2.510	-0.000	0.000
4881	4841	4838	4837	3	0.628	1.883	0.000	-2.510	-0.000	0.000
4881	4841	4838	4839	3	0.628	1.883	0.000	-2.510	-0.000	0.000
4874	4837	4838	4839	3	0.628	1.883	0.000	-2.510	-0.000	0.000
4877	4839	4838	4841	3	0.628	1.883	0.000	-2.510	-0.000	0.000
4874	4837	4838	4840	3	0.628	1.883	0.000	-2.510	-0.000	0.000
4882	4841	4838	4839	3	0.628	1.883	0.000	-2.510	-0.000	0.000
4878	4840	4838	4841	3	0.628	1.883	0.000	-2.510	-0.000	0.000
4879	4840	4838	4841	3	0.628	1.883	0.000	-2.510	-0.000	0.000
4880	4840	4838	4837	3	0.628	1.883	0.000	-2.510	-0.000	0.000
4873	4837	4838	4840	3	0.628	1.883	0.000	-2.510	-0.000	0.000
4873	4837	4838	4839	3	0.628	1.883	0.000	-2.510	-0.000	0.000
4878	4840	4838	4839	3	0.628	1.883	0.000	-2.510	-0.000	0.000
4874	4837	4838	4841	3	0.628	1.883	0.000	-2.510	-0.000	0.000
4882	4841	4838	4840	3	0.628	1.883	0.000	-2.510	-0.000	0.000
4876	4839	4838	4840	3	0.628	1.883	0.000	-2.510	-0.000	0.000
4875	4839	4838	4841	3	0.628	1.883	0.000	-2.510	-0.000	0.000
4882	4841	4838	4837	3	0.628	1.883	0.000	-2.510	-0.000	0.000
4873	4837	4838	4841	3	0.628	1.883	0.000	-2.510	-0.000	0.000
4880	4840	4838	4839	3	0.628	1.883	0.000	-2.510	-0.000	0.000
4881	4841	4838	4840	3	0.628	1.883	0.000	-2.510	-0.000	0.000
4880	4840	4838	4841	3	0.628	1.883	0.000	-2.510	-0.000	0.000
4849	4788	4787	4848	3	0.628	1.883	0.000	-2.510	-0.000	0.000
4850	4788	4787	4847	3	0.628	1.883	0.000	-2.510	-0.000	0.000
4849	4788	4787	4847	3	0.628	1.883	0.000	-2.510	-0.000	0.000
4850	4788	4787	4848	3	0.628	1.883	0.000	-2.510	-0.000	0.000
4850	4788	4787	4786	3	-4.096	5.088	2.966	-3.958	-0.000	0.000
4849	4788	4787	4786	3	-4.096	5.088	2.966	-3.958	-0.000	0.000
4848	4787	4788	4789	3	0.979	2.937	0.000	-3.916	-0.000	0.000
4847	4787	4788	4789	3	0.979	2.937	0.000	-3.916	-0.000	0.000
4848	4787	4786	4803	3	1.172	3.515	0.000	-4.686	-0.000	0.000
4844	4785	4786	4803	3	1.172	3.515	0.000	-4.686	-0.000	0.000
4847	4787	4786	4803	3	1.172	3.515	0.000	-4.686	-0.000	0.000
4845	4785	4786	4803	3	1.172	3.515	0.000	-4.686	-0.000	0.000
4846	4785	4786	4803	3	1.172	3.515	0.000	-4.686	-0.000	0.000
4847	4787	4786	4785	3	1.172	3.515	0.000	-4.686	-0.000	0.000
4845	4785	4786	4787	3	1.172	3.515	0.000	-4.686	-0.000	0.000
4848	4787	4786	4785	3	1.172	3.515	0.000	-4.686	-0.000	0.000
4846	4785	4786	4787	3	1.172	3.515	0.000	-4.686	-0.000	0.000
4844	4785	4786	4787	3	1.172	3.515	0.000	-4.686	-0.000	0.000
4849	4788	4789	4790	3	1.590	4.770	0.000	-6.360	-0.000	0.000
4850	4788	4789	4790	3	1.590	4.770	0.000	-6.360	-0.000	0.000
4855	4798	4797	4799	3	0.0	0.0	0.0	-0.0	-0.0	0.0
4855	4798	4797	4796	3	0.0	0.0	0.0	-0.0	-0.0	0.0
4798	4797	4796	4795	3	0.0	0.0	0.0	-0.0	-0.0	0.0
4825	4826	4815	4814	3	2.874	0.582	2.092	-5.548	-0.000	0.000
4825	4826	4815	4816	3	1.046	-1.046	0.000	-0.000	-0.000	0.000
4789	4788	4787	4786	3	16.736	-16.736	0.000	-0.000	-0.000	0.000
4825	4819	4816	4815	3	1.046	-1.046	0.000	-0.000	-0.000	0.000
4825	4819	4816	4817	3	9.079	0.000	-9.079	-0.000	-0.000	0.000
4894	4893	4892	4891	3	30.334	0.000	-30.334	-0.000	-0.000	0.000
4893	4901	4902	4890	3	30.334	0.000	-30.334	-0.000	-0.000	0.000
4893	4892	4891	4890	3	30.334	0.000	-30.334	-0.000	-0.000	0.000
4914	4913	4912	4911	3	21.738	2.408	-16.966	-7.180	-0.000	0.000
4910	4909	4908	4907	3	21.738	2.408	-16.966	-7.180	-0.000	0.000
4911	4910	4909	4908	3	21.738	2.408	-16.966	-7.180	-0.000	0.000
4912	4911	4910	4909	3	21.738	2.408	-16.966	-7.180	-0.000	0.000
4913	4912	4911	4910	3	21.738	2.408	-16.966	-7.180	-0.000	0.000
4909	4908	4907	4906	3	58.576	0.000	-58.576	-0.000	-0.000	0.000
4908	4907	4906	4905	3	16.027	-4.391	-14.029	2.393	-0.000	0.000
4907	4906	4905	4904	3	30.334	0.000	-30.334	-0.000	-0.000	0.000
4916	4915	4914	4913	3	58.576	0.000	-58.576	-0.000	-0.000	0.000
4901	4893	4894	4900	3	9.079	0.000	-9.079	-0.000	-0.000	0.000
4900	4894	4893	4892	3	9.079	0.000	-9.079	-0.000	-0.000	0.000
4901	4893	4894	4895	3	9.079	0.000	-9.079	-0.000	-0.000	0.000
4895	4894	4893	4892	3	9.079	0.000	-9.079	-0.000	-0.000	0.000
4900	4894	4895	4896	3	30.334	0.000	-30.334	-0.000	-0.000	0.000
4901	4893	4892	4891	3	30.334	0.000	-30.334	-0.000	-0.000	0.000
4899	4900	4894	4893	3	30.334	0.000	-30.334	-0.000	-0.000	0.000
4902	4901	4893	4894	3	30.334	0.000	-30.334	-0.000	-0.000	0.000
4896	4895	4894	4893	3	30.334	0.000	-30.334	-0.000	-0.000	0.000
4899	4900	4894	4895	3	30.334	0.000	-30.334	-0.000	-0.000	0.000
4902	4901	4893	4892	3	30.334	0.000	-30.334	-0.000	-0.000	0.000
4942	4906	4907	4908	3	16.027	-4.391	-14.029	2.393	-0.000	0.000
4897	4899	4900	4894	3	30.334	0.000	-30.334	-0.000	-0.000	0.000
4897	4896	4895	4894	3	30.334	0.000	-30.334	-0.000	-0.000	0.000
4943	4942	4906	4907	3	30.334	0.000	-30.334	-0.000	-0.000	0.000
4932	4927	4928	4929	3	30.334	0.000	-30.334	-0.000	-0.000	0.000
4943	4942	4906	4905	3	30.334	0.000	-30.334	-0.000	-0.000	0.000
4902	4890	4891	4892	3	30.334	0.000	-30.334	-0.000	-0.000	0.000
4942	4943	4903	4904	3	30.334	0.000	-30.334	-0.000	-0.000	0.000
4932	4931	4930	4929	3	30.334	0.000	-30.334	-0.000	-0.000	0.000
4931	4930	4929	4928	3	30.334	0.000	-30.334	-0.000	-0.000	0.000
4930	4929	4928	4927	3	30.334	0.000	-30.334	-0.000	-0.000	0.000
4906	4905	4904	4903	3	30.334	0.000	-30.334	-0.000	-0.000	0.000
4906	4942	4943	4903	3	30.334	0.000	-30.334	-0.000	-0.000	0.000
4943	4903	4904	4905	3	30.334	0.000	-30.334	-0.000	-0.000	0.000
4942	4906	4905	4904	3	30.334	0.000	-30.334	-0.000	-0.000	0.000
4931	4932	4927	4928	3	30.334	0.000	-30.334	-0.000	-0.000	0.000
4900	4899	4897	4896	3	30.334	0.000	-30.334	-0.000	-0.000	0.000
4901	4902	4890	4891	3	30.334	0.000	-30.334	-0.000	-0.000	0.000
4930	4931	4932	4927	3	30.334	0.000	-30.334	-0.000	-0.000	0.000
4899	4897	4896	4895	3	30.334	0.000	-30.334	-0.000	-0.000	0.000
4931	4932	4927	4926	3	30.334	0.000	-30.334	-0.000	-0.000	0.000
4929	4928	4927	4926	3	30.334	0.000	-30.334	-0.000	-0.000	0.000
4942	4943	4903	4886	3	30.334	0.000	-30.334	-0.000	-0.000	0.000
4905	4904	4903	4886	3	30.334	0.000	-30.334	-0.000	-0.000	0.000
4900	4899	4897	4898	3	0.0	0.0	0.0	-0.0	-0.0	0.0
4892	4891	4890	4889	3	30.334	0.000	-30.334	-0.000	-0.000	0.000
4901	4902	4890	4889	3	30.334	0.000	-30.334	-0.000	-0.000	0.000
4932	4927	4926	4915	3	0.000	0.000	0.000	-0.000	-0.000	0.000
4928	4927	4926	4915	3	0.000	0.000	0.000	-0.000	-0.000	0.000
4932	4927	4926	4925	3	0.000	0.000	0.000	-0.000	-0.000	0.000
4928	4927	4926	4925	3	0.000	0.000	0.000	-0.000	-0.000	0.000
4943	4903	4886	4887	3	5.184	35.932	-14.355	-26.761	-0.000	0.000
4904	4903	4886	4887	3	5.184	35.932	-14.355	-26.761	-0.000	0.000
4904	4903	4886	4885	3	5.184	35.932	-14.355	-26.761	-0.000	0.000
4943	4903	4886	4885	3	5.184	35.932	-14.355	-26.761	-0.000	0.000
4891	4890	4889	4888	3	12.552	0.000	-12.552	-0.000	-0.000	0.000
4902	4890	4889	4888	3	12.552	0.000	-12.552	-0.000	-0.000	0.000
4927	4926	4915	4914	3	6.322	-2.485	0.707	-4.544	-0.000	0.000
4927	4926	4915	4916	3	0.527	-6.397	-1.695	7.565	-0.000	0.000
4927	4926	4925	4919	3	1.715	2.845	1.046	-5.607	-0.000	0.000
4903	4886	4887	4888	3	1.789	3.492	0.536	-5.816	-0.000	0.000
4890	4889	4888	4887	3	1.715	2.845	1.046	-5.607	-0.000	0.000
4933	4926	4927	4928	3	0.000	0.000	0.000	-0.000	-0.000	0.000
4933	4926	4927	4932	3	0.000	0.000	0.000	-0.000	-0.000	0.000
4933	4926	4915	4914	3	6.322	-2.485	0.707	-4.544	-0.000	0.000
4933	4926	4915	4916	3	0.527	-6.397	-1.695	7.565	-0.000	0.000
4933	4926	4925	4919	3	1.715	2.845	1.046	-5.607	-0.000	0.000
4915	4914	4913	4912	3	21.738	2.408	-16.966	-7.180	-0.000	0.000
4920	4919	4916	4915	3	21.738	2.408	-16.966	-7.180	-0.000	0.000
4920	4919	4916	4917	3	-0.778	-2.335	0.000	3.113	-0.000	0.000
4941	4909	4908	4907	3	58.576	0.000	-58.576	-0.000	-0.000	0.000
4937	4911	4910	4909	3	58.576	0.000	-58.576	-0.000	-0.000	0.000
4941	4909	4910	4911	3	58.576	0.000	-58.576	-0.000	-0.000	0.000
4937	4911	4912	4913	3	58.576	0.000	-58.576	-0.000	-0.000	0.000
4926	4915	4914	4913	3	-0.778	-2.335	0.000	3.113	-0.000	0.000
4926	4915	4916	4919	3	58.576	0.000	-58.576	-0.000	-0.000	0.000
4926	4915	4916	4917	3	58.576	0.000	-58.576	-0.000	-0.000	0.000
4938	4941	4909	4908	3	0.527	-6.397	-1.695	7.565	-0.000	0.000
4938	4937	4911	4912	3	0.527	-6.397	-1.695	7.565	-0.000	0.000
4938	4937	4911	4910	3	0.527	-6.397	-1.695	7.565	-0.000	0.000
4938	4941	4909	4910	3	0.527	-6.397	-1.695	7.565	-0.000	0.000
4941	4938	4937	4911	3	2.301	-1.464	0.837	-1.674	-0.000	0.000
4940	4938	4941	4909	3	2.301	-1.464	0.837	-1.674	-0.000	0.000
4937	4938	4941	4909	3	2.301	-1.464	0.837	-1.674	-0.000	0.000
4939	4938	4941	4909	3	2.301	-1.464	0.837	-1.674	-0.000	0.000
4940	4938	4937	4911	3	2.301	-1.464	0.837	-1.674	-0.000	0.000
4939	4938	4937	4911	3	2.301	-1.464	0.837	-1.674	-0.000	0.000
4888	4887	4886	4885	3	1.789	3.492	0.536	-5.816	-0.000	0.000
4926	4925	4919	4916	3	30.334	0.000	-30.334	-0.000	-0.000	0.000
4926	4925	4919	4920	3	30.334	0.000	-30.334	-0.000	-0.000	0.000
4919	4916	4915	4914	3	58.576	0.000	-58.576	-0.000	-0.000	0.000
4919	4925	4926	4915	3	1.715	2.845	1.046	-5.607	-0.000	0.000
4917	4916	4915	4914	3	58.576	0.000	-58.576	-0.000	-0.000	0.000
4921	4920	4919	4916	3	58.576	0.000	-58.576	-0.000	-0.000	0.000
4923	4920	4919	4916	3	58.576	0.000	-58.576	-0.000	-0.000	0.000
4934	4933	4926	4927	3	0.000	0.000	0.000	-0.000	-0.000	0.000
4935	4933	4926	4927	3	0.000	0.000	0.000	-0.000	-0.000	0.000
4936	4933	4926	4927	3	0.000	0.000	0.000	-0.000	-0.000	0.000
4935	4933	4926	4915	3	0.000	0.000	0.000	-0.000	-0.000	0.000
4934	4933	4926	4915	3	0.000	0.000	0.000	-0.000	-0.000	0.000
4936	4933	4926	4915	3	0.000	0.000	0.000	-0.000	-0.000	0.000
4935	4933	4926	4925	3	1.130	3.389	0.000	-4.519	-0.000	0.000
4936	4933	4926	4925	3	1.130	3.389	0.000	-4.519	-0.000	0.000
4934	4933	4926	4925	3	1.130	3.389	0.000	-4.519	-0.000	0.000
4964	4910	4909	4908	3	58.576	0.000	-58.576	-0.000	-0.000	0.000
4964	4910	4911	4912	3	58.576	0.000	-58.576	-0.000	-0.000	0.000
4964	4910	4911	4937	3	58.576	0.000	-58.576	-0.000	-0.000	0.000
4964	4910	4909	4941	3	58.576	0.000	-58.576	-0.000	-0.000	0.000
4953	4895	4894	4893	3	30.334	0.000	-30.334	-0.000	-0.000	0.000
4952	4892	4893	4894	3	30.334	0.000	-30.334	-0.000	-0.000	0.000
4958	4901	4893	4894	3	30.334	0.000	-30.334	-0.000	-0.000	0.000
4957	4900	4894	4893	3	30.334	0.000	-30.334	-0.000	-0.000	0.000
4957	4900	4894	4895	3	30.334	0.000	-30.334	-0.000	-0.000	0.000
4953	4895	4894	4900	3	30.334	0.000	-30.334	-0.000	-0.000	0.000
4952	4892	4893	4901	3	30.334	0.000	-30.334	-0.000	-0.000	0.000
4958	4901	4893	4892	3	30.334	0.000	-30.334	-0.000	-0.000	0.000
4951	4891	4892	4893	3	30.334	0.000	-30.334	-0.000	-0.000	0.000
4959	4902	4901	4893	3	30.334	0.000	-30.334	-0.000	-0.000	0.000
4954	4896	4895	4894	3	30.334	0.000	-30.334	-0.000	-0.000	0.000
4956	4899	4900	4894	3	30.334	0.000	-30.334	-0.000	-0.000	0.000
4961	4905	4906	4907	3	30.334	0.000	-30.334	-0.000	-0.000	0.000
4983	4942	4906	4907	3	30.334	0.000	-30.334	-0.000	-0.000	0.000
4968	4928	4929	4930	3	30.334	0.000	-30.334	-0.000	-0.000	0.000
4956	4899	4897	4896	3	30.334	0.000	-30.334	-0.000	-0.000	0.000
4971	4931	4930	4929	3	30.334	0.000	-30.334	-0.000	-0.000	0.000
4983	4942	4943	4903	3	30.334	0.000	-30.334	-0.000	-0.000	0.000
4969	4929	4928	4927	3	30.334	0.000	-30.334	-0.000	-0.000	0.000
4984	4943	4942	4906	3	30.334	0.000	-30.334	-0.000	-0.000	0.000
4970	4930	4929	4928	3	30.334	0.000	-30.334	-0.000	-0.000	0.000
4959	4902	4890	4891	3	30.334	0.000	-30.334	-0.000	-0.000	0.000
4958	4901	4902	4890	3	30.334	0.000	-30.334	-0.000	-0.000	0.000
4983	4942	4906	4905	3	30.334	0.000	-30.334	-0.000	-0.000	0.000
4984	4943	4903	4904	3	30.334	0.000	-30.334	-0.000	-0.000	0.000
4971	4931	4932	4927	3	30.334	0.000	-30.334	-0.000	-0.000	0.000
4968	4928	4927	4932	3	30.334	0.000	-30.334	-0.000	-0.000	0.000
4953	4895	4896	4897	3	30.334	0.000	-30.334	-0.000	-0.000	0.000
4954	4896	4897	4899	3	30.334	0.000	-30.334	-0.000	-0.000	0.000
4951	4891	4890	4902	3	30.334	0.000	-30.334	-0.000	-0.000	0.000
4960	4904	4903	4943	3	30.334	0.000	-30.334	-0.000	-0.000	0.000
4960	4904	4905	4906	3	30.334	0.000	-30.334	-0.000	-0.000	0.000
4957	4900	4899	4897	3	30.334	0.000	-30.334	-0.000	-0.000	0.000
4961	4905	4906	4942	3	30.334	0.000	-30.334	-0.000	-0.000	0.000
4970	4930	4931	4932	3	30.334	0.000	-30.334	-0.000	-0.000	0.000
4972	4932	4931	4930	3	30.334	0.000	-30.334	-0.000	-0.000	0.000
4969	4929	4930	4931	3	30.334	0.000	-30.334	-0.000	-0.000	0.000
4972	4932	4927	4928	3	30.334	0.000	-30.334	-0.000	-0.000	0.000
4952	4892	4891	4890	3	30.334	0.000	-30.334	-0.000	-0.000	0.000
4961	4905	4904	4903	3	30.334	0.000	-30.334	-0.000	-0.000	0.000
4972	4932	4927	4926	3	30.334	0.000	-30.334	-0.000	-0.000	0.000
4968	4928	4927	4926	3	30.334	0.000	-30.334	-0.000	-0.000	0.000
4961	4905	4904	4960	3	30.334	0.000	-30.334	-0.000	-0.000	0.000
4984	4943	4942	4983	3	30.334	0.000	-30.334	-0.000	-0.000	0.000
4970	4930	4929	4969	3	30.334	0.000	-30.334	-0.000	-0.000	0.000
4954	4896	4895	4953	3	30.334	0.000	-30.334	-0.000	-0.000	0.000
4959	4902	4901	4958	3	30.334	0.000	-30.334	-0.000	-0.000	0.000
4957	4900	4899	4956	3	30.334	0.000	-30.334	-0.000	-0.000	0.000
4969	4929	4928	4968	3	30.334	0.000	-30.334	-0.000	-0.000	0.000
4952	4892	4891	4951	3	30.334	0.000	-30.334	-0.000	-0.000	0.000
4971	4931	4930	4970	3	30.334	0.000	-30.334	-0.000	-0.000	0.000
4972	4932	4931	4971	3	30.334	0.000	-30.334	-0.000	-0.000	0.000
4984	4943	4903	4886	3	30.334	0.000	-30.334	-0.000	-0.000	0.000
4960	4904	4903	4886	3	30.334	0.000	-30.334	-0.000	-0.000	0.000
4954	4896	4897	4898	3	0.0	0.0	0.0	-0.0	-0.0	0.0
4956	4899	4897	4898	3	0.0	0.0	0.0	-0.0	-0.0	0.0
4951	4891	4890	4889	3	30.334	0.000	-30.334	-0.000	-0.000	0.000
4959	4902	4890	4889	3	30.334	0.000	-30.334	-0.000	-0.000	0.000
4965	4912	4911	4910	3	58.576	0.000	-58.576	-0.000	-0.000	0.000
4965	4912	4913	4914	3	58.576	0.000	-58.576	-0.000	-0.000	0.000
4967	4914	4913	4912	3	58.576	0.000	-58.576	-0.000	-0.000	0.000
4966	4913	4912	4911	3	58.576	0.000	-58.576	-0.000	-0.000	0.000
4963	4908	4909	4910	3	58.576	0.000	-58.576	-0.000	-0.000	0.000
4962	4907	4908	4909	3	58.576	0.000	-58.576	-0.000	-0.000	0.000
4963	4908	4907	4906	3	58.576	0.000	-58.576	-0.000	-0.000	0.000
4966	4913	4914	4915	3	58.576	0.000	-58.576	-0.000	-0.000	0.000
4965	4912	4911	4937	3	58.576	0.000	-58.576	-0.000	-0.000	0.000
4963	4908	4909	4941	3	58.576	0.000	-58.576	-0.000	-0.000	0.000
4963	4908	4907	4962	3	58.576	0.000	-58.576	-0.000	-0.000	0.000
4966	4913	4912	4965	3	58.576	0.000	-58.576	-0.000	-0.000	0.000
4967	4914	4913	4966	3	58.576	0.000	-58.576	-0.000	-0.000	0.000
4962	4907	4906	4942	3	-0.778	-2.335	0.000	3.113	-0.000	0.000
4962	4907	4906	4905	3	-0.778	-2.335	0.000	3.113	-0.000	0.000
4967	4914	4915	4916	3	58.576	0.000	-58.576	-0.000	-0.000	0.000
4967	4914	4915	4926	3	58.576	0.000	-58.576	-0.000	-0.000	0.000
4981	4941	4909	4908	3	-0.778	-2.335	0.000	3.113	-0.000	0.000
4981	4941	4909	4910	3	-0.778	-2.335	0.000	3.113	-0.000	0.000
4982	4941	4909	4908	3	-0.778	-2.335	0.000	3.113	-0.000	0.000
4974	4937	4911	4912	3	-0.778	-2.335	0.000	3.113	-0.000	0.000
4982	4941	4909	4910	3	-0.778	-2.335	0.000	3.113	-0.000	0.000
4973	4937	4911	4910	3	-0.778	-2.335	0.000	3.113	-0.000	0.000
4974	4937	4911	4910	3	-0.778	-2.335	0.000	3.113	-0.000	0.000
4973	4937	4911	4912	3	-0.778	-2.335	0.000	3.113	-0.000	0.000
4976	4939	4938	4941	3	0.628	1.883	0.000	-2.510	-0.000	0.000
4975	4939	4938	4940	3	0.628	1.883	0.000	-2.510	-0.000	0.000
4975	4939	4938	4937	3	0.628	1.883	0.000	-2.510	-0.000	0.000
4977	4939	4938	4940	3	0.628	1.883	0.000	-2.510	-0.000	0.000
4979	4940	4938	4937	3	0.628	1.883	0.000	-2.510	-0.000	0.000
4978	4940	4938	4937	3	0.628	1.883	0.000	-2.510	-0.000	0.000
4977	4939	4938	4937	3	0.628	1.883	0.000	-2.510	-0.000	0.000
4979	4940	4938	4939	3	0.628	1.883	0.000	-2.510	-0.000	0.000
4976	4939	4938	4937	3	0.628	1.883	0.000	-2.510	-0.000	0.000
4981	4941	4938	4937	3	0.628	1.883	0.000	-2.510	-0.000	0.000
4981	4941	4938	4939	3	0.628	1.883	0.000	-2.510	-0.000	0.000
4974	4937	4938	4939	3	0.628	1.883	0.000	-2.510	-0.000	0.000
4977	4939	4938	4941	3	0.628	1.883	0.000	-2.510	-0.000	0.000
4974	4937	4938	4940	3	0.628	1.883	0.000	-2.510	-0.000	0.000
4982	4941	4938	4939	3	0.628	1.883	0.000	-2.510	-0.000	0.000
4978	4940	4938	4941	3	0.628	1.883	0.000	-2.510	-0.000	0.000
4979	4940	4938	4941	3	0.628	1.883	0.000	-2.510	-0.000	0.000
4980	4940	4938	4937	3	0.628	1.883	0.000	-2.510	-0.000	0.000
4973	4937	4938	4940	3	0.628	1.883	0.000	-2.510	-0.000	0.000
4973	4937	4938	4939	3	0.628	1.883	0.000	-2.510	-0.000	0.000
4978	4940	4938	4939	3	0.628	1.883	0.000	-2.510	-0.000	0.000
4974	4937	4938	4941	3	0.628	1.883	0.000	-2.510	-0.000	0.000
4982	4941	4938	4940	3	0.628	1.883	0.000	-2.510	-0.000	0.000
4976	4939	4938	4940	3	0.628	1.883	0.000	-2.510	-0.000	0.000
4975	4939	4938	4941	3	0.628	1.883	0.000	-2.510	-0.000	0.000
4982	4941	4938	4937	3	0.628	1.883	0.000	-2.510	-0.000	0.000
4973	4937	4938	4941	3	0.628	1.883	0.000	-2.510	-0.000	0.000
4980	4940	4938	4939	3	0.628	1.883	0.000	-2.510	-0.000	0.000
4981	4941	4938	4940	3	0.628	1.883	0.000	-2.510	-0.000	0.000
4980	4940	4938	4941	3	0.628	1.883	0.000	-2.510	-0.000	0.000
4949	4888	4887	4948	3	0.628	1.883	0.000	-2.510	-0.000	0.000
4950	4888	4887	4947	3	0.628	1.883	0.000	-2.510	-0.000	0.000
4949	4888	4887	4947	3	0.628	1.883	0.000	-2.510	-0.000	0.000
4950	4888	4887	4948	3	0.628	1.883	0.000	-2.510	-0.000	0.000
4950	4888	4887	4886	3	-4.096	5.088	2.966	-3.958	-0.000	0.000
4949	4888	4887	4886	3	-4.096	5.088	2.966	-3.958	-0.000	0.000
4948	4887	4888	4889	3	0.979	2.937	0.000	-3.916	-0.000	0.000
4947	4887	4888	4889	3	0.979	2.937	0.000	-3.916	-0.000	0.000
4948	4887	4886	4903	3	1.172	3.515	0.000	-4.686	-0.000	0.000
4944	4885	4886	4903	3	1.172	3.515	0.000	-4.686	-0.000	0.000
4947	4887	4886	4903	3	1.172	3.515	0.000	-4.686	-0.000	0.000
4945	4885	4886	4903	3	1.172	3.515	0.000	-4.686	-0.000	0.000
4946	4885	4886	4903	3	1.172	3.515	0.000	-4.686	-0.000	0.000
4947	4887	4886	4885	3	1.172	3.515	0.000	-4.686	-0.000	0.000
4945	4885	4886	4887	3	1.172	3.515	0.000	-4.686	-0.000	0.000
4948	4887	4886	4885	3	1.172	3.515	0.000	-4.686	-0.000	0.000
4946	4885	4886	4887	3	1.172	3.515	0.000	-4.686	-0.000	0.000
4944	4885	4886	4887	3	1.172	3.515	0.000	-4.686	-0.000	0.000
4949	4888	4889	4890	3	1.590	4.770	0.000	-6.360	-0.000	0.000
4950	4888	4889	4890	3	1.590	4.770	0.000	-6.360	-0.000	0.000
4955	4898	4897	4899	3	0.0	0.0	0.0	-0.0	-0.0	0.0
4955	4898	4897	4896	3	0.0	0.0	0.0	-0.0	-0.0	0.0
4898	4897	4896	4895	3	0.0	0.0	0.0	-0.0	-0.0	0.0
4925	4926	4915	4914	3	2.874	0.582	2.092	-5.548	-0.000	0.000
4925	4926	4915	4916	3	1.046	-1.046	0.000	-0.000	-0.000	0.000
4889	4888	4887	4886	3	16.736	-16.736	0.000	-0.000	-0.000	0.000
4925	4919	4916	4915	3	1.046	-1.046	0.000	-0.000	-0.000	0.000
4925	4919	4916	4917	3	9.079	0.000	-9.079	-0.000	-0.000	0.000
4994	4993	4992	4991	3	30.334	0.000	-30.334	-0.000	-0.000	0.000
4993	5001	5002	4990	3	30.334	0.000	-30.334	-0.000	-0.000	0.000
4993	4992	4991	4990	3	30.334	0.000	-30.334	-0.000	-0.000	0.000
5014	5013	5012	5011	3	21.738	2.408	-16.966	-7.180	-0.000	0.000
5010	5009	5008	5007	3	21.738	2.408	-16.966	-7.180	-0.000	0.000
5011	5010	5009	5008	3	21.738	2.408	-16.966	-7.180	-0.000	0.000
5012	5011	5010	5009	3	21.738	2.408	-16.966	-7.180	-0.000	0.000
5013	5012	5011	5010	3	21.738	2.408	-16.966	-7.180	-0.000	0.000
5009	5008	5007	5006	3	58.576	0.000	-58.576	-0.000	-0.000	0.000
5008	5007	5006	5005	3	16.027	-4.391	-14.029	2.393	-0.000	0.000
5007	5006	5005	5004	3	30.334	0.000	-30.334	-0.000	-0.000	0.000
5016	5015	5014	5013	3	58.576	0.000	-58.576	-0.000	-0.000	0.000
5001	4993	4994	5000	3	9.079	0.000	-9.079	-0.000	-0.000	0.000
5000	4994	4993	4992	3	9.079	0.000	-9.079	-0.000	-0.000	0.000
5001	4993	4994	4995	3	9.079	0.000	-9.079	-0.000	-0.000	0.000
4995	4994	4993	4992	3	9.079	0.000	-9.079	-0.000	-0.000	0.000
5000	4994	4995	4996	3	30.334	0.000	-30.334	-0.000	-0.000	0.000
5001	4993	4992	4991	3	30.334	0.000	-30.334	-0.000	-0.000	0.000
4999	5000	4994	4993	3	30.334	0.000	-30.334	-0.000	-0.000	0.000
5002	5001	4993	4994	3	30.334	0.000	-30.334	-0.000	-0.000	0.000
4996	4995	4994	4993	3	30.334	0.000	-30.334	-0.000	-0.000	0.000
4999	5000	4994	4995	3	30.334	0.000	-30.334	-0.000	-0.000	0.000
5002	5001	4993	4992	3	30.334	0.000	-30.334	-0.000	-0.000	0.000
5042	5006	5007	5008	3	16.027	-4.391	-14.029	2.393	-0.000	0.000
4997	4999	5000	4994	3	30.334	0.000	-30.334	-0.000	-0.000	0.000
4997	4996	4995	4994	3	30.334	0.000	-30.334	-0.000	-0.000	0.000
5043	5042	5006	5007	3	30.334	0.000	-30.334	-0.000	-0.000	0.000
5032	5027	5028	5029	3	30.334	0.000	-30.334	-0.000	-0.000	0.000
5043	5042	5006	5005	3	30.334	0.000	-30.334	-0.000	-0.000	0.000
5002	4990	4991	4992	3	30.334	0.000	-30.334	-0.000	-0.000	0.000
5042	5043	5003	5004	3	30.334	0.000	-30.334	-0.000	-0.000	0.000
5032	5031	5030	5029	3	30.334	0.000	-30.334	-0.000	-0.000	0.000
5031	5030	5029	5028	3	30.334	0.000	-30.334	-0.000	-0.000	0.000
5030	5029	5028	5027	3	30.334	0.000	-30.334	-0.000	-0.000	0.000
5006	5005	5004	5003	3	30.334	0.000	-30.334	-0.000	-0.000	0.000
5006	5042	5043	5003	3	30.334	0.000	-30.334	-0.000	-0.000	0.000
5043	5003	5004	5005	3	30.334	0.000	-30.334	-0.000	-0.000	0.000
5042	5006	5005	5004	3	30.334	0.000	-30.334	-0.000	-0.000	0.000
5031	5032	5027	5028	3	30.334	0.000	-30.334	-0.000	-0.000	0.000
5000	4999	4997	4996	3	30.334	0.000	-30.334	-0.000	-0.000	0.000
5001	5002	4990	4991	3	30.334	0.000	-30.334	-0.000	-0.000	0.000
5030	5031	5032	5027	3	30.334	0.000	-30.334	-0.000	-0.000	0.000
4999	4997	4996	4995	3	30.334	0.000	-30.334	-0.000	-0.000	0.000
5031	5032	5027	5026	3	30.334	0.000	-30.334	-0.000	-0.000	0.000
5029	5028	5027	5026	3	30.334	0.000	-30.334	-0.000	-0.000	0.000
5042	5043	5003	4986	3	30.334	0.000	-30.334	-0.000	-0.000	0.000
5005	5004	5003	4986	3	30.334	0.000	-30.334	-0.000	-0.000	0.000
5000	4999	4997	4998	3	0.0	0.0	0.0	-0.0	-0.0	0.0
4992	4991	4990	4989	3	30.334	0.000	-30.334	-0.000	-0.000	0.000
5001	5002	4990	4989	3	30.334	0.000	-30.334	-0.000	-0.000	0.000
5032	5027	5026	5015	3	0.000	0.000	0.000	-0.000	-0.000	0.000
5028	5027	5026	5015	3	0.000	0.000	0.000	-0.000	-0.000	0.000
5032	5027	5026	5025	3	0.000	0.000	0.000	-0.000	-0.000	0.000
5028	5027	5026	5025	3	0.000	0.000	0.000	-0.000	-0.000	0.000
5043	5003	4986	4987	3	5.184	35.932	-14.355	-26.761	-0.000	0.000
5004	5003	4986	4987	3	5.184	35.932	-14.355	-26.761	-0.000	0.000
5004	5003	4986	4985	3	5.184	35.932	-14.355	-26.761	-0.000	0.000
5043	5003	4986	4985	3	5.184	35.932	-14.355	-26.761	-0.000	0.000
4991	4990	4989	4988	3	12.552	0.000	-12.552	-0.000	-0.000	0.000
5002	4990	4989	4988	3	12.552	0.000	-12.552	-0.000	-0.000	0.000
5027	5026	5015	5014	3	6.322	-2.485	0.707	-4.544	-0.000	0.000
5027	5026	5015	5016	3	0.527	-6.397	-1.695	7.565	-0.000	0.000
5027	5026	5025	5019	3	1.715	2.845	1.046	-5.607	-0.000	0.000
5003	4986	4987	4988	3	1.789	3.492	0.536	-5.816	-0.000	0.000
4990	4989	4988	4987	3	1.715	2.845	1.046	-5.607	-0.000	0.000
5033	5026	5027	5028	3	0.000	0.000	0.000	-0.000	-0.000	0.000
5033	5026	5027	5032	3	0.000	0.000	0.000	-0.000	-0.000	0.000
5033	5026	5015	5014	3	6.322	-2.485	0.707	-4.544	-0.000	0.000
5033	5026	5015	5016	3	0.527	-6.397	-1.695	7.565	-0.000	0.000
5033	5026	5025	5019	3	1.715	2.845	1.046	-5.607	-0.000	0.000
5015	5014	5013	5012	3	21.738	2.408	-16.966	-7.180	-0.000	0.000
5020	5019	5016	5015	3	21.738	2.408	-16.966	-7.180	-0.000	0.000
5020	5019	5016	5017	3	-0.778	-2.335	0.000	3.113	-0.000	0.000
5041	5009	5008	5007	3	58.576	0.000	-58.576	-0.000	-0.000	0.000
5037	5011	5010	5009	3	58.576	0.000	-58.576	-0.000	-0.000	0.000
5041	5009	5010	5011	3	58.576	0.000	-58.576	-0.000	-0.000	0.000
5037	5011	5012	5013	3	58.576	0.000	-58.576	-0.000	-0.000	0.000
5026	5015	5014	5013	3	-0.778	-2.335	0.000	3.113	-0.000	0.000
5026	5015	5016	5019	3	58.576	0.000	-58.576	-0.000	-0.000	0.000
5026	5015	5016	5017	3	58.576	0.000	-58.576	-0.000	-0.000	0.000
5038	5041	5009	5008	3	0.527	-6.397	-1.695	7.565	-0.000	0.000
5038	5037	5011	5012	3	0.527	-6.397	-1.695	7.565	-0.000	0.000
5038	5037	5011	5010	3	0.527	-6.397	-1.695	7.565	-0.000	0.000
5038	5041	5009	5010	3	0.527	-6.397	-1.695	7.565	-0.000	0.000
5041	5038	5037	5011	3	2.301	-1.464	0.837	-1.674	-0.000	0.000
5040	5038	5041	5009	3	2.301	-1.464	0.837	-1.674	-0.000	0.000
5037	5038	5041	5009	3	2.301	-1.464	0.837	-1.674	-0.000	0.000
5039	5038	5041	5009	3	2.301	-1.464	0.837	-1.674	-0.000	0.000
5040	5038	5037	5011	3	2.301	-1.464	0.837	-1.674	-0.000	0.000
5039	5038	5037	5011	3	2.301	-1.464	0.837	-1.674	-0.000	0.000
4988	4987	4986	4985	3	1.789	3.492	0.536	-5.816	-0.000	0.000
5026	5025	5019	5016	3	30.334	0.000	-30.334	-0.000	-0.000	0.000
5026	5025	5019	5020	3	30.334	0.000	-30.334	-0.000	-0.000	0.000
5019	5016	5015	5014	3	58.576	0.000	-58.576	-0.000	-0.000	0.000
5019	5025	5026	5015	3	1.715	2.845	1.046	-5.607	-0.000	0.000
5017	5016	5015	5014	3	58.576	0.000	-58.576	-0.000	-0.000	0.000
5021	5020	5019	5016	3	58.576	0.000	-58.576	-0.000	-0.000	0.000
5023	5020	5019	5016	3	58.576	0.000	-58.576	-0.000	-0.000	0.000
5034	5033	5026	5027	3	0.000	0.000	0.000	-0.000	-0.000	0.000
5035	5033	5026	5027	3	0.000	0.000	0.000	-0.000	-0.000	0.000
5036	5033	5026	5027	3	0.000	0.000	0.000	-0.000	-0.000	0.000
5035	5033	5026	5015	3	0.000	0.000	0.000	-0.000	-0.000	0.000
5034	5033	5026	5015	3	0.000	0.000	0.000	-0.000	-0.000	0.000
5036	5033	5026	5015	3	0.000	0.000	0.000	-0.000	-0.000	0.000
5035	5033	5026	5025	3	1.130	3.389	0.000	-4.519	-0.000	0.000
5036	5033	5026	5025	3	1.130	3.389	0.000	-4.519	-0.000	0.000
5034	5033	5026	5025	3	1.130	3.389	0.000	-4.519	-0.000	0.000
5064	5010	5009	5008	3	58.576	0.000	-58.576	-0.000	-0.000	0.000
5064	5010	5011	5012	3	58.576	0.000	-58.576	-0.000	-0.000	0.000
5064	5010	5011	5037	3	58.576	0.000	-58.576	-0.000	-0.000	0.000
5064	5010	5009	5041	3	58.576	0.000	-58.576	-0.000	-0.000	0.000
5053	4995	4994	4993	3	30.334	0.000	-30.334	-0.000	-0.000	0.000
5052	4992	4993	4994	3	30.334	0.000	-30.334	-0.000	-0.000	0.000
5058	5001	4993	4994	3	30.334	0.000	-30.334	-0.000	-0.000	0.000
5057	5000	4994	4993	3	30.334	0.000	-30.334	-0.000	-0.000	0.000
5057	5000	4994	4995	3	30.334	0.000	-30.334	-0.000	-0.000	0.000
5053	4995	4994	5000	3	30.334	0.000	-30.334	-0.000	-0.000	0.000
5052	4992	4993	5001	3	30.334	0.000	-30.334	-0.000	-0.000	0.000
5058	5001	4993	4992	3	30.334	0.000	-30.334	-0.000	-0.000	0.000
5051	4991	4992	4993	3	30.334	0.000	-30.334	-0.000	-0.000	0.000
5059	5002	5001	4993	3	30.334	0.000	-30.334	-0.000	-0.000	0.000
5054	4996	4995	4994	3	30.334	0.000	-30.334	-0.000	-0.000	0.000
5056	4999	5000	4994	3	30.334	0.000	-30.334	-0.000	-0.000	0.000
5061	5005	5006	5007	3	30.334	0.000	-30.334	-0.000	-0.000	0.000
5083	5042	5006	5007	3	30.334	0.000	-30.334	-0.000	-0.000	0.000
5068	5028	5029	5030	3	30.334	0.000	-30.334	-0.000	-0.000	0.000
5056	4999	4997	4996	3	30.334	0.000	-30.334	-0.000	-0.000	0.000
5071	5031	5030	5029	3	30.334	0.000	-30.334	-0.000	-0.000	0.000
5083	5042	5043	5003	3	30.334	0.000	-30.334	-0.000	-0.000	0.000
5069	5029	5028	5027	3	30.334	0.000	-30.334	-0.000	-0.000	0.000
5084	5043	5042	5006	3	30.334	0.000	-30.334	-0.000	-0.000	0.000
5070	5030	5029	5028	3	30.334	0.000	-30.334	-0.000	-0.000	0.000
5059	5002	4990	4991	3	30.334	0.000	-30.334	-0.000	-0.000	0.000
5058	5001	5002	4990	3	30.334	0.000	-30.334	-0.000	-0.000	0.000
5083	5042	5006	5005	3	30.334	0.000	-30.334	-0.000	-0.000	0.000
5084	5043	5003	5004	3	30.334	0.000	-30.334	-0.000	-0.000	0.000
5071	5031	5032	5027	3	30.334	0.000	-30.334	-0.000	-0.000	0.000
5068	5028	5027	5032	3	30.334	0.000	-30.334	-0.000	-0.000	0.000
5053	4995	4996	4997	3	30.334	0.000	-30.334	-0.000	-0.000	0.000
5054	4996	4997	4999	3	30.334	0.000	-30.334	-0.000	-0.000	0.000
5051	4991	4990	5002	3	30.334	0.000	-30.334	-0.000	-0.000	0.000
5060	5004	5003	5043	3	30.334	0.000	-30.334	-0.000	-0.000	0.000
5060	5004	5005	5006	3	30.334	0.000	-30.334	-0.000	-0.000	0.000
5057	5000	4999	4997	3	30.334	0.000	-30.334	-0.000	-0.000	0.000
5061	5005	5006	5042	3	30.334	0.000	-30.334	-0.000	-0.000	0.000
5070	5030	5031	5032	3	30.334	0.000	-30.334	-0.000	-0.000	0.000
5072	5032	5031	5030	3	30.334	0.000	-30.334	-0.000	-0.000	0.000
5069	5029	5030	5031	3	30.334	0.000	-30.334	-0.000	-0.000	0.000
5072	5032	5027	5028	3	30.334	0.000	-30.334	-0.000	-0.000	0.000
5052	4992	4991	4990	3	30.334	0.000	-30.334	-0.000	-0.000	0.000
5061	5005	5004	5003	3	30.334	0.000	-30.334	-0.000	-0.000	0.000
5072	5032	5027	5026	3	30.334	0.000	-30.334	-0.000	-0.000	0.000
5068	5028	5027	5026	3	30.334	0.000	-30.334	-0.000	-0.000	0.000
5061	5005	5004	5060	3	30.334	0.000	-30.334	-0.000	-0.000	0.000
5084	5043	5042	5083	3	30.334	0.000	-30.334	-0.000	-0.000	0.000
5070	5030	5029	5069	3	30.334	0.000	-30.334	-0.000	-0.000	0.000
5054	4996	4995	5053	3	30.334	0.000	-30.334	-0.000	-0.000	0.000
5059	5002	5001	5058	3	30.334	0.000	-30.334	-0.000	-0.000	0.000
5057	5000	4999	5056	3	30.334	0.000	-30.334	-0.000	-0.000	0.000
5069	5029	5028	5068	3	30.334	0.000	-30.334	-0.000	-0.000	0.000
5052	4992	4991	5051	3	30.334	0.000	-30.334	-0.000	-0.000	0.000
5071	5031	5030	5070	3	30.334	0.000	-30.334	-0.000	-0.000	0.000
5072	5032	5031	5071	3	30.334	0.000	-30.334	-0.000	-0.000	0.000
5084	5043	5003	4986	3	30.334	0.000	-30.334	-0.000	-0.000	0.000
5060	5004	5003	4986	3	30.334	0.000	-30.334	-0.000	-0.000	0.000
5054	4996	4997	4998	3	0.0	0.0	0.0	-0.0	-0.0	0.0
5056	4999	4997	4998	3	0.0	0.0	0.0	-0.0	-0.0	0.0
5051	4991	4990	4989	3	30.334	0.000	-30.334	-0.000	-0.000	0.000
5059	5002	4990	4989	3	30.334	0.000	-30.334	-0.000	-0.000	0.000
5065	5012	5011	5010	3	58.576	0.000	-58.576	-0.000	-0.000	0.000
5065	5012	5013	5014	3	58.576	0.000	-58.576	-0.000	-0.000	0.000
5067	5014	5013	5012	3	58.576	0.000	-58.576	-0.000	-0.000	0.000
5066	5013	5012	5011	3	58.576	0.000	-58.576	-0.000	-0.000	0.000
5063	5008	5009	5010	3	58.576	0.000	-58.576	-0.000	-0.000	0.000
5062	5007	5008	5009	3	58.576	0.000	-58.576	-0.000	-0.000	0.000
5063	5008	5007	5006	3	58.576	0.000	-58.576	-0.000	-0.000	0.000
5066	5013	5014	5015	3	58.576	0.000	-58.576	-0.000	-0.000	0.000
5065	5012	5011	5037	3	58.576	0.000	-58.576	-0.000	-0.000	0.000
5063	5008	5009	5041	3	58.576	0.000	-58.576	-0.000	-0.000	0.000
5063	5008	5007	5062	3	58.576	0.000	-58.576	-0.000	-0.000	0.000
5066	5013	5012	5065	3	58.576	0.000	-58.576	-0.000	-0.000	0.000
5067	5014	5013	5066	3	58.576	0.000	-58.576	-0.000	-0.000	0.000
5062	5007	5006	5042	3	-0.778	-2.335	0.000	3.113	-0.000	0.000
5062	5007	5006	5005	3	-0.778	-2.335	0.000	3.113	-0.000	0.000
5067	5014	5015	5016	3	58.576	0.000	-58.576	-0.000	-0.000	0.000
5067	5014	5015	5026	3	58.576	0.000	-58.576	-0.000	-0.000	0.000
5081	5041	5009	5008	3	-0.778	-2.335	0.000	3.113	-0.000	0.000
5081	5041	5009	5010	3	-0.778	-2.335	0.000	3.113	-0.000	0.000
5082	5041	5009	5008	3	-0.778	-2.335	0.000	3.113	-0.000	0.000
5074	5037	5011	5012	3	-0.778	-2.335	0.000	3.113	-0.000	0.000
5082	5041	5009	5010	3	-0.778	-2.335	0.000	3.113	-0.000	0.000
5073	5037	5011	5010	3	-0.778	-2.335	0.000	3.113	-0.000	0.000
5074	5037	5011	5010	3	-0.778	-2.335	0.000	3.113	-0.000	0.000
5073	5037	5011	5012	3	-0.778	-2.335	0.000	3.113	-0.000	0.000
5076	5039	5038	5041	3	0.628	1.883	0.000	-2.510	-0.000	0.000
5075	5039	5038	5040	3	0.628	1.883	0.000	-2.510	-0.000	0.000
5075	5039	5038	5037	3	0.628	1.883	0.000	-2.510	-0.000	0.000
5077	5039	5038	5040	3	0.628	1.883	0.000	-2.510	-0.000	0.000
5079	5040	5038	5037	3	0.628	1.883	0.000	-2.510	-0.000	0.000
5078	5040	5038	5037	3	0.628	1.883	0.000	-2.510	-0.000	0.000
5077	5039	5038	5037	3	0.628	1.883	0.000	-2.510	-0.000	0.000
5079	5040	5038	5039	3	0.628	1.883	0.000	-2.510	-0.000	0.000
5076	5039	5038	5037	3	0.628	1.883	0.000	-2.510	-0.000	0.000
5081	5041	5038	5037	3	0.628	1.883	0.000	-2.510	-0.000	0.000
5081	5041	5038	5039	3	0.628	1.883	0.000	-2.510	-0.000	0.000
5074	5037	5038	5039	3	0.628	1.883	0.000	-2.510	-0.000	0.000
5077	5039	5038	5041	3	0.628	1.883	0.000	-2.510	-0.000	0.000
5074	5037	5038	5040	3	0.628	1.883	0.000	-2.510	-0.000	0.000
5082	5041	5038	5039	3	0.628	1.883	0.000	-2.510	-0.000	0.000
5078	5040	5038	5041	3	0.628	1.883	0.000	-2.510	-0.000	0.000
5079	5040	5038	5041	3	0.628	1.883	0.000	-2.510	-0.000	0.000
5080	5040	5038	5037	3	0.628	1.883	0.000	-2.510	-0.000	0.000
5073	5037	5038	5040	3	0.628	1.883	0.000	-2.510	-0.000	0.000
5073	5037	5038	5039	3	0.628	1.883	0.000	-2.510	-0.000	0.000
5078	5040	5038	5039	3	0.628	1.883	0.000	-2.510	-0.000	0.000
5074	5037	5038	5041	3	0.628	1.883	0.000	-2.510	-0.000	0.000
5082	5041	5038	5040	3	0.628	1.883	0.000	-2.510	-0.000	0.000
5076	5039	5038	5040	3	0.628	1.883	0.000	-2.510	-0.000	0.000
5075	5039	5038	5041	3	0.628	1.883	0.000	-2.510	-0.000	0.000
5082	5041	5038	5037	3	0.628	1.883	0.000	-2.510	-0.000	0.000
5073	5037	5038	5041	3	0.628	1.883	0.000	-2.510	-0.000	0.000
5080	5040	5038	5039	3	0.628	1.883	0.000	-2.510	-0.000	0.000
5081	5041	5038	5040	3	0.628	1.883	0.000	-2.510	-0.000	0.000
5080	5040	5038	5041	3	0.628	1.883	0.000	-2.510	-0.000	0.000
5049	4988	4987	5048	3	0.628	1.883	0.000	-2.510	-0.000	0.000
5050	4988	4987	5047	3	0.628	1.883	0.000	-2.510	-0.000	0.000
5049	4988	4987	5047	3	0.628	1.883	0.000	-2.510	-0.000	0.000
5050	4988	4987	5048	3	0.628	1.883	0.000	-2.510	-0.000	0.000
5050	4988	4987	4986	3	-4.096	5.088	2.966	-3.958	-0.000	0.000
5049	4988	4987	4986	3	-4.096	5.088	2.966	-3.958	-0.000	0.000
5048	4987	4988	4989	3	0.979	2.937	0.000	-3.916	-0.000	0.000
5047	4987	4988	4989	3	0.979	2.937	0.000	-3.916	-0.000	0.000
5048	4987	4986	5003	3	1.172	3.515	0.000	-4.686	-0.000	0.000
5044	4985	4986	5003	3	1.172	3.515	0.000	-4.686	-0.000	0.000
5047	4987	4986	5003	3	1.172	3.515	0.000	-4.686	-0.000	0.000
5045	4985	4986	5003	3	1.172	3.515	0.000	-4.686	-0.000	0.000
5046	4985	4986	5003	3	1.172	3.515	0.000	-4.686	-0.000	0.000
5047	4987	4986	4985	3	1.172	3.515	0.000	-4.686	-0.000	0.000
5045	4985	4986	4987	3	1.172	3.515	0.000	-4.686	-0.000	0.000
5048	4987	4986	4985	3	1.172	3.515	0.000	-4.686	-0.000	0.000
5046	4985	4986	4987	3	1.172	3.515	0.000	-4.686	-0.000	0.000
5044	4985	4986	4987	3	1.172	3.515	0.000	-4.686	-0.000	0.000
5049	4988	4989	4990	3	1.590	4.770	0.000	-6.360	-0.000	0.000
5050	4988	4989	4990	3	1.590	4.770	0.000	-6.360	-0.000	0.000
5055	4998	4997	4999	3	0.0	0.0	0.0	-0.0	-0.0	0.0
5055	4998	4997	4996	3	0.0	0.0	0.0	-0.0	-0.0	0.0
4998	4997	4996	4995	3	0.0	0.0	0.0	-0.0	-0.0	0.0
5025	5026	5015	5014	3	2.874	0.582	2.092	-5.548	-0.000	0.000
5025	5026	5015	5016	3	1.046	-1.046	0.000	-0.000	-0.000	0.000
4989	4988	4987	4986	3	16.736	-16.736	0.000	-0.000	-0.000	0.000
5025	5019	5016	5015	3	1.046	-1.046	0.000	-0.000	-0.000	0.000
5025	5019	5016	5017	3	9.079	0.000	-9.079	-0.000	-0.000	0.000
5094	5093	5092	5091	3	30.334	0.000	-30.334	-0.000	-0.000	0.000
5093	5101	5102	5090	3	30.334	0.000	-30.334	-0.000	-0.000	0.000
5093	5092	5091	5090	3	30.334	0.000	-30.334	-0.000	-0.000	0.000
5114	5113	5112	5111	3	21.738	2.408	-16.966	-7.180	-0.000	0.000
5110	5109	5108	5107	3	21.738	2.408	-16.966	-7.180	-0.000	0.000
5111	5110	5109	5108	3	21.738	2.408	-16.966	-7.180	-0.000	0.000
5112	5111	5110	5109	3	21.738	2.408	-16.966	-7.180	-0.000	0.000
5113	5112	5111	5110	3	21.738	2.408	-16.966	-7.180	-0.000	0.000
5109	5108	5107	5106	3	58.576	0.000	-58.576	-0.000	-0.000	0.000
5108	5107	5106	5105	3	16.027	-4.391	-14.029	2.393	-0.000	0.000
5107	5106	5105	5104	3	30.334	0.000	-30.334	-0.000	-0.000	0.000
5116	5115	5114	5113	3	58.576	0.000	-58.576	-0.000	-0.000	0.000
5101	5093	5094	5100	3	9.079	0.000	-9.079	-0.000	-0.000	0.000
5100	5094	5093	5092	3	9.079	0.000	-9.079	-0.000	-0.000	0.000
5101	5093	5094	5095	3	9.079	0.000	-9.079	-0.000	-0.000	0.000
5095	5094	5093	5092	3	9.079	0.000	-9.079	-0.000	-0.000	0.000
5100	5094	5095	5096	3	30.334	0.000	-30.334	-0.000	-0.000	0.000
5101	5093	5092	5091	3	30.334	0.000	-30.334	-0.000	-0.000	0.000
5099	5100	5094	5093	3	30.334	0.000	-30.334	-0.000	-0.000	0.000
5102	5101	5093	5094	3	30.334	0.000	-30.334	-0.000	-0.000	0.000
5096	5095	5094	5093	3	30.334	0.000	-30.334	-0.000	-0.000	0.000
5099	5100	5094	5095	3	30.334	0.000	-30.334	-0.000	-0.000	0.000
5102	5101	5093	5092	3	30.334	0.000	-30.334	-0.000	-0.000	0.000
5142	5106	5107	5108	3	16.027	-4.391	-14.029	2.393	-0.000	0.000
5097	5099	5100	5094	3	30.334	0.000	-30.334	-0.000	-0.000	0.000
5097	5096	5095	5094	3	30.334	0.000	-30.334	-0.000	-0.000	0.000
5143	5142	5106	5107	3	30.334	0.000	-30.334	-0.000	-0.000	0.000
5132	5127	5128	5129	3	30.334	0.000	-30.334	-0.000	-0.000	0.000
5143	5142	5106	5105	3	30.334	0.000	-30.334	-0.000	-0.000	0.000
5102	5090	5091	5092	3	30.334	0.000	-30.334	-0.000	-0.000	0.000
5142	5143	5103	5104	3	30.334	0.000	-30.334	-0.000	-0.000	0.000
5132	5131	5130	5129	3	30.334	0.000	-30.334	-0.000	-0.000	0.000
5131	5130	5129	5128	3	30.334	0.000	-30.334	-0.000	-0.000	0.000
5130	5129	5128	5127	3	30.334	0.000	-30.334	-0.000	-0.000	0.000
5106	5105	5104	5103	3	30.334	0.000	-30.334	-0.000	-0.000	0.000
5106	5142	5143	5103	3	30.334	0.000	-30.334	-0.000	-0.000	0.000
5143	5103	5104	5105	3	30.334	0.000	-30.334	-0.000	-0.000	0.000
5142	5106	5105	5104	3	30.334	0.000	-30.334	-0.000	-0.000	0.000
5131	5132	5127	5128	3	30.334	0.000	-30.334	-0.000	-0.000	0.000
5100	5099	5097	5096	3	30.334	0.000	-30.334	-0.000	-0.000	0.000
5101	5102	5090	5091	3	30.334	0.000	-30.334	-0.000	-0.000	0.000
5130	5131	5132	5127	3	30.334	0.000	-30.334	-0.000	-0.000	0.000
5099	5097	5096	5095	3	30.334	0.000	-30.334	-0.000	-0.000	0.000
5131	5132	5127	5126	3	30.334	0.000	-30.334	-0.000	-0.000	0.000
5129	5128	5127	5126	3	30.334	0.000	-30.334	-0.000	-0.000	0.000
5142	5143	5103	5086	3	30.334	0.000	-30.334	-0.000	-0.000	0.000
5105	5104	5103	5086	3	30.334	0.000	-30.334	-0.000	-0.000	0.000
5100	5099	5097	5098	3	0.0	0.0	0.0	-0.0	-0.0	0.0
5092	5091	5090	5089	3	30.334	0.000	-30.334	-0.000	-0.000	0.000
5101	5102	5090	5089	3	30.334	0.000	-30.334	-0.000	-0.000	0.000
5132	5127	5126	5115	3	0.000	0.000	0.000	-0.000	-0.000	0.000
5128	5127	5126	5115	3	0.000	0.000	0.000	-0.000	-0.000	0.000
5132	5127	5126	5125	3	0.000	0.000	0.000	-0.000	-0.000	0.000
5128	5127	5126	5125	3	0.000	0.000	0.000	-0.000	-0.000	0.000
5143	5103	5086	5087	3	5.184	35.932	-14.355	-26.761	-0.000	0.000
5104	5103	5086	5087	3	5.184	35.932	-14.355	-26.761	-0.000	0.000
5104	5103	5086	5085	3	5.184	35.932	-14.355	-26.761	-0.000	0.000
5143	5103	5086	5085	3	5.184	35.932	-14.355	-26.761	-0.000	0.000
5091	5090	5089	5088	3	12.552	0.000	-12.552	-0.000	-0.000	0.000
5102	5090	5089	5088	3	12.552	0.000	-12.552	-0.000	-0.000	0.000
5127	5126	5115	5114	3	6.322	-2.485	0.707	-4.544	-0.000	0.000
5127	5126	5115	5116	3	0.527	-6.397	-1.695	7.565	-0.000	0.000
5127	5126	5125	5119	3	1.715	2.845	1.046	-5.607	-0.000	0.000
5103	5086	5087	5088	3	1.789	3.492	0.536	-5.816	-0.000	0.000
5090	5089	5088	5087	3	1.715	2.845	1.046	-5.607	-0.000	0.000
5133	5126	5127	5128	3	0.000	0.000	0.000	-0.000	-0.000	0.000
5133	5126	5127	5132	3	0.000	0.000	0.000	-0.000	-0.000	0.000
5133	5126	5115	5114	3	6.322	-2.485	0.707	-4.544	-0.000	0.000
5133	5126	5115	5116	3	0.527	-6.397	-1.695	7.565	-0.000	0.000
5133	5126	5125	5119	3	1.715	2.845	1.046	-5.607	-0.000	0.000
5115	5114	5113	5112	3	21.738	2.408	-16.966	-7.180	-0.000	0.000
5120	5119	5116	5115	3	21.738	2.408	-16.966	-7.180	-0.000	0.000
5120	5119	5116	5117	3	-0.778	-2.335	0.000	3.113	-0.000	0.000
5141	5109	5108	5107	3	58.576	0.000	-58.576	-0.000	-0.000	0.000
5137	5111	5110	5109	3	58.576	0.000	-58.576	-0.000	-0.000	0.000
5141	5109	5110	5111	3	58.576	0.000	-58.576	-0.000	-0.000	0.000
5137	5111	5112	5113	3	58.576	0.000	-58.576	-0.000	-0.000	0.000
5126	5115	5114	5113	3	-0.778	-2.335	0.000	3.113	-0.000	0.000
5126	5115	5116	5119	3	58.576	0.000	-58.576	-0.000	-0.000	0.000
5126	5115	5116	5117	3	58.576	0.000	-58.576	-0.000	-0.000	0.000
5138	5141	5109	5108	3	0.527	-6.397	-1.695	7.565	-0.000	0.000
5138	5137	5111	5112	3	0.527	-6.397	-1.695	7.565	-0.000	0.000
5138	5137	5111	5110	3	0.527	-6.397	-1.695	7.565	-0.000	0.000
5138	5141	5109	5110	3	0.527	-6.397	-1.695	7.565	-0.000	0.000
5141	5138	5137	5111	3	2.301	-1.464	0.837	-1.674	-0.000	0.000
5140	5138	5141	5109	3	2.301	-1.464	0.837	-1.674	-0.000	0.000
5137	5138	5141	5109	3	2.301	-1.464	0.837	-1.674	-0.000	0.000
5139	5138	5141	5109	3	2.301	-1.464	0.837	-1.674	-0.000	0.000
5140	5138	5137	5111	3	2.301	-1.464	0.837	-1.674	-0.000	0.000
5139	5138	5137	5111	3	2.301	-1.464	0.837	-1.674	-0.000	0.000
5088	5087	5086	5085	3	1.789	3.492	0.536	-5.816	-0.000	0.000
5126	5125	5119	5116	3	30.334	0.000	-30.334	-0.000	-0.000	0.000
5126	5125	5119	5120	3	30.334	0.000	-30.334	-0.000	-0.000	0.000
5119	5116	5115	5114	3	58.576	0.000	-58.576	-0.000	-0.000	0.000
5119	5125	5126	5115	3	1.715	2.845	1.046	-5.607	-0.000	0.000
5117	5116	5115	5114	3	58.576	0.000	-58.576	-0.000	-0.000	0.000
5121	5120	5119	5116	3	58.576	0.000	-58.576	-0.000	-0.000	0.000
5123	5120	5119	5116	3	58.576	0.000	-58.576	-0.000	-0.000	0.000
5134	5133	5126	5127	3	0.000	0.000	0.000	-0.000	-0.000	0.000
5135	5133	5126	5127	3	0.000	0.000	0.000	-0.000	-0.000	0.000
5136	5133	5126	5127	3	0.000	0.000	0.000	-0.000	-0.000	0.000
5135	5133	5126	5115	3	0.000	0.000	0.000	-0.000	-0.000	0.000
5134	5133	5126	5115	3	0.000	0.000	0.000	-0.000	-0.000	0.000
5136	5133	5126	5115	3	0.000	0.000	0.000	-0.000	-0.000	0.000
5135	5133	5126	5125	3	1.130	3.389	0.000	-4.519	-0.000	0.000
5136	5133	5126	5125	3	1.130	3.389	0.000	-4.519	-0.000	0.000
5134	5133	5126	5125	3	1.130	3.389	0.000	-4.519	-0.000	0.000
5164	5110	5109	5108	3	58.576	0.000	-58.576	-0.000	-0.000	0.000
5164	5110	5111	5112	3	58.576	0.000	-58.576	-0.000	-0.000	0.000
5164	5110	5111	5137	3	58.576	0.000	-58.576	-0.000	-0.000	0.000
5164	5110	5109	5141	3	58.576	0.000	-58.576	-0.000	-0.000	0.000
5153	5095	5094	5093	3	30.334	0.000	-30.334	-0.000	-0.000	0.000
5152	5092	5093	5094	3	30.334	0.000	-30.334	-0.000	-0.000	0.000
5158	5101	5093	5094	3	30.334	0.000	-30.334	-0.000	-0.000	0.000
5157	5100	5094	5093	3	30.334	0.000	-30.334	-0.000	-0.000	0.000
5157	5100	5094	5095	3	30.334	0.000	-30.334	-0.000	-0.000	0.000
5153	5095	5094	5100	3	30.334	0.000	-30.334	-0.000	-0.000	0.000
5152	5092	5093	5101	3	30.334	0.000	-30.334	-0.000	-0.000	0.000
5158	5101	5093	5092	3	30.334	0.000	-30.334	-0.000	-0.000	0.000
5151	5091	5092	5093	3	30.334	0.000	-30.334	-0.000	-0.000	0.000
5159	5102	5101	5093	3	30.334	0.000	-30.334	-0.000	-0.000	0.000
5154	5096	5095	5094	3	30.334	0.000	-30.334	-0.000	-0.000	0.000
5156	5099	5100	5094	3	30.334	0.000	-30.334	-0.000	-0.000	0.000
5161	5105	5106	5107	3	30.334	0.000	-30.334	-0.000	-0.000	0.000
5183	5142	5106	5107	3	30.334	0.000	-30.334	-0.000	-0.000	0.000
5168	5128	5129	5130	3	30.334	0.000	-30.334	-0.000	-0.000	0.000
5156	5099	5097	5096	3	30.334	0.000	-30.334	-0.000	-0.000	0.000
5171	5131	5130	5129	3	30.334	0.000	-30.334	-0.000	-0.000	0.000
5183	5142	5143	5103	3	30.334	0.000	-30.334	-0.000	-0.000	0.000
5169	5129	5128	5127	3	30.334	0.000	-30.334	-0.000	-0.000	0.000
5184	5143	5142	5106	3	30.334	0.000	-30.334	-0.000	-0.000	0.000
5170	5130	5129	5128	3	30.334	0.000	-30.334	-0.000	-0.000	0.000
5159	5102	5090	5091	3	30.334	0.000	-30.334	-0.000	-0.000	0.000
5158	5101	5102	5090	3	30.334	0.000	-30.334	-0.000	-0.000	0.000
5183	5142	5106	5105	3	30.334	0.000	-30.334	-0.000	-0.000	0.000
5184	5143	5103	5104	3	30.334	0.000	-30.334	-0.000	-0.000	0.000
5171	5131	5132	5127	3	30.334	0.000	-30.334	-0.000	-0.000	0.000
5168	5128	5127	5132	3	30.334	0.000	-30.334	-0.000	-0.000	0.000
5153	5095	5096	5097	3	30.334	0.000	-30.334	-0.000	-0.000	0.000
5154	5096	5097	5099	3	30.334	0.000	-30.334	-0.000	-0.000	0.000
5151	5091	5090	5102	3	30.334	0.000	-30.334	-0.000	-0.000	0.000
5160	5104	5103	5143	3	30.334	0.000	-30.334	-0.000	-0.000	0.000
5160	5104	5105	5106	3	30.334	0.000	-30.334	-0.000	-0.000	0.000
5157	5100	5099	5097	3	30.334	0.000	-30.334	-0.000	-0.000	0.000
5161	5105	5106	5142	3	30.334	0.000	-30.334	-0.000	-0.000	0.000
5170	5130	5131	5132	3	30.334	0.000	-30.334	-0.000	-0.000	0.000
5172	5132	5131	5130	3	30.334	0.000	-30.334	-0.000	-0.000	0.000
5169	5129	5130	5131	3	30.334	0.000	-30.334	-0.000	-0.000	0.000
5172	5132	5127	5128	3	30.334	0.000	-30.334	-0.000	-0.000	0.000
5152	5092	5091	5090	3	30.334	0.000	-30.334	-0.000	-0.000	0.000
5161	5105	5104	5103	3	30.334	0.000	-30.334	-0.000	-0.000	0.000
5172	5132	5127	5126	3	30.334	0.000	-30.334	-0.000	-0.000	0.000
5168	5128	5127	5126	3	30.334	0.000	-30.334	-0.000	-0.000	0.000
5161	5105	5104	5160	3	30.334	0.000	-30.334	-0.000	-0.000	0.000
5184	5143	5142	5183	3	30.334	0.000	-30.334	-0.000	-0.000	0.000
5170	5130	5129	5169	3	30.334	0.000	-30.334	-0.000	-0.000	0.000
5154	5096	5095	5153	3	30.334	0.000	-30.334	-0.000	-0.000	0.000
5159	5102	5101	5158	3	30.334	0.000	-30.334	-0.000	-0.000	0.000
5157	5100	5099	5156	3	30.334	0.000	-30.334	-0.000	-0.000	0.000
5169	5129	5128	5168	3	30.334	0.000	-30.334	-0.000	-0.000	0.000
5152	5092	5091	5151	3	30.334	0.000	-30.334	-0.000	-0.000	0.000
5171	5131	5130	5170	3	30.334	0.000	-30.334	-0.000	-0.000	0.000
5172	5132	5131	5171	3	30.334	0.000	-30.334	-0.000	-0.000	0.000
5184	5143	5103	5086	3	30.334	0.000	-30.334	-0.000	-0.000	0.000
5160	5104	5103	5086	3	30.334	0.000	-30.334	-0.000	-0.000	0.000
5154	5096	5097	5098	3	0.0	0.0	0.0	-0.0	-0.0	0.0
5156	5099	5097	5098	3	0.0	0.0	0.0	-0.0	-0.0	0.0
5151	5091	5090	5089	3	30.334	0.000	-30.334	-0.000	-0.000	0.000
5159	5102	5090	5089	3	30.334	0.000	-30.334	-0.000	-0.000	0.000
5165	5112	5111	5110	3	58.576	0.000	-58.576	-0.000	-0.000	0.000
5165	5112	5113	5114	3	58.576	0.000	-58.576	-0.000	-0.000	0.000
5167	5114	5113	5112	3	58.576	0.000	-58.576	-0.000	-0.000	0.000
5166	5113	5112	5111	3	58.576	0.000	-58.576	-0.000	-0.000	0.000
5163	5108	5109	5110	3	58.576	0.000	-58.576	-0.000	-0.000	0.000
5162	5107	5108	5109	3	58.576	0.000	-58.576	-0.000	-0.000	0.000
5163	5108	5107	5106	3	58.576	0.000	-58.576	-0.000	-0.000	0.000
5166	5113	5114	5115	3	58.576	0.000	-58.576	-0.000	-0.000	0.000
5165	5112	5111	5137	3	58.576	0.000	-58.576	-0.000	-0.000	0.000
5163	5108	5109	5141	3	58.576	0.000	-58.576	-0.000	-0.000	0.000
5163	5108	5107	5162	3	58.576	0.000	-58.576	-0.000	-0.000	0.000
5166	5113	5112	5165	3	58.576	0.000	-58.576	-0.000	-0.000	0.000
5167	5114	5113	5166	3	58.576	0.000	-58.576	-0.000	-0.000	0.000
5162	5107	5106	5142	3	-0.778	-2.335	0.000	3.113	-0.000	0.000
5162	5107	5106	5105	3	-0.778	-2.335	0.000	3.113	-0.000	0.000
5167	5114	5115	5116	3	58.576	0.000	-58.576	-0.000	-0.000	0.000
5167	5114	5115	5126	3	58.576	0.000	-58.576	-0.000	-0.000	0.000
5181	5141	5109	5108	3	-0.778	-2.335	0.000	3.113	-0.000	0.000
5181	5141	5109	5110	3	-0.778	-2.335	0.000	3.113	-0.000	0.000
5182	5141	5109	5108	3	-0.778	-2.335	0.000	3.113	-0.000	0.000
5174	5137	5111	5112	3	-0.778	-2.335	0.000	3.113	-0.000	0.000
5182	5141	5109	5110	3	-0.778	-2.335	0.000	3.113	-0.000	0.000
5173	5137	5111	5110	3	-0.778	-2.335	0.000	3.113	-0.000	0.000
5174	5137	5111	5110	3	-0.778	-2.335	0.000	3.113	-0.000	0.000
5173	5137	5111	5112	3	-0.778	-2.335	0.000	3.113	-0.000	0.000
5176	5139	5138	5141	3	0.628	1.883	0.000	-2.510	-0.000	0.000
5175	5139	5138	5140	3	0.628	1.883	0.000	-2.510	-0.000	0.000
5175	5139	5138	5137	3	0.628	1.883	0.000	-2.510	-0.000	0.000
5177	5139	5138	5140	3	0.628	1.883	0.000	-2.510	-0.000	0.000
5179	5140	5138	5137	3	0.628	1.883	0.000	-2.510	-0.000	0.000
5178	5140	5138	5137	3	0.628	1.883	0.000	-2.510	-0.000	0.000
5177	5139	5138	5137	3	0.628	1.883	0.000	-2.510	-0.000	0.000
5179	5140	5138	5139	3	0.628	1.883	0.000	-2.510	-0.000	0.000
5176	5139	5138	5137	3	0.628	1.883	0.000	-2.510	-0.000	0.000
5181	5141	5138	5137	3	0.628	1.883	0.000	-2.510	-0.000	0.000
5181	5141	5138	5139	3	0.628	1.883	0.000	-2.510	-0.000	0.000
5174	5137	5138	5139	3	0.628	1.883	0.000	-2.510	-0.000	0.000
5177	5139	5138	5141	3	0.628	1.883	0.000	-2.510	-0.000	0.000
5174	5137	5138	5140	3	0.628	1.883	0.000	-2.510	-0.000	0.000
5182	5141	5138	5139	3	0.628	1.883	0.000	-2.510	-0.000	0.000
5178	5140	5138	5141	3	0.628	1.883	0.000	-2.510	-0.000	0.000
5179	5140	5138	5141	3	0.628	1.883	0.000	-2.510	-0.000	0.000
5180	5140	5138	5137	3	0.628	1.883	0.000	-2.510	-0.000	0.000
5173	5137	5138	5140	3	0.628	1.883	0.000	-2.510	-0.000	0.000
5173	5137	5138	5139	3	0.628	1.883	0.000	-2.510	-0.000	0.000
5178	5140	5138	5139	3	0.628	1.883	0.000	-2.510	-0.000	0.000
5174	5137	5138	5141	3	0.628	1.883	0.000	-2.510	-0.000	0.000
5182	5141	5138	5140	3	0.628	1.883	0.000	-2.510	-0.000	0.000
5176	5139	5138	5140	3	0.628	1.883	0.000	-2.510	-0.000	0.000
5175	5139	5138	5141	3	0.628	1.883	0.000	-2.510	-0.000	0.000
5182	5141	5138	5137	3	0.628	1.883	0.000	-2.510	-0.000	0.000
5173	5137	5138	5141	3	0.628	1.883	0.000	-2.510	-0.000	0.000
5180	5140	5138	5139	3	0.628	1.883	0.000	-2.510	-0.000	0.000
5181	5141	5138	5140	3	0.628	1.883	0.000	-2.510	-0.000	0.000
5180	5140	5138	5141	3	0.628	1.883	0.000	-2.510	-0.000	0.000
5149	5088	5087	5148	3	0.628	1.883	0.000	-2.510	-0.000	0.000
5150	5088	5087	5147	3	0.628	1.883	0.000	-2.510	-0.000	0.000
5149	5088	5087	5147	3	0.628	1.883	0.000	-2.510	-0.000	0.000
5150	5088	5087	5148	3	0.628	1.883	0.000	-2.510	-0.000	0.000
5150	5088	5087	5086	3	-4.096	5.088	2.966	-3.958	-0.000	0.000
5149	5088	5087	5086	3	-4.096	5.088	2.966	-3.958	-0.000	0.000
5148	5087	5088	5089	3	0.979	2.937	0.000	-3.916	-0.000	0.000
5147	5087	5088	5089	3	0.979	2.937	0.000	-3.916	-0.000	0.000
5148	5087	5086	5103	3	1.172	3.515	0.000	-4.686	-0.000	0.000
5144	5085	5086	5103	3	1.172	3.515	0.000	-4.686	-0.000	0.000
5147	5087	5086	5103	3	1.172	3.515	0.000	-4.686	-0.000	0.000
5145	5085	5086	5103	3	1.172	3.515	0.000	-4.686	-0.000	0.000
5146	5085	5086	5103	3	1.172	3.515	0.000	-4.686	-0.000	0.000
5147	5087	5086	5085	3	1.172	3.515	0.000	-4.686	-0.000	0.000
5145	5085	5086	5087	3	1.172	3.515	0.000	-4.686	-0.000	0.000
5148	5087	5086	5085	3	1.172	3.515	0.000	-4.686	-0.000	0.000
5146	5085	5086	5087	3	1.172	3.515	0.000	-4.686	-0.000	0.000
5144	5085	5086	5087	3	1.172	3.515	0.000	-4.686	-0.000	0.000
5149	5088	5089	5090	3	1.590	4.770	0.000	-6.360	-0.000	0.000
5150	5088	5089	5090	3	1.590	4.770	0.000	-6.360	-0.000	0.000
5155	5098	5097	5099	3	0.0	0.0	0.0	-0.0	-0.0	0.0
5155	5098	5097	5096	3	0.0	0.0	0.0	-0.0	-0.0	0.0
5098	5097	5096	5095	3	0.0	0.0	0.0	-0.0	-0.0	0.0
5125	5126	5115	5114	3	2.874	0.582	2.092	-5.548	-0.000	0.000
5125	5126	5115	5116	3	1.046	-1.046	0.000	-0.000	-0.000	0.000
5089	5088	5087	5086	3	16.736	-16.736	0.000	-0.000	-0.000	0.000
5125	5119	5116	5115	3	1.046	-1.046	0.000	-0.000	-0.000	0.000
5125	5119	5116	5117	3	9.079	0.000	-9.079	-0.000	-0.000	0.000
5194	5193	5192	5191	3	30.334	0.000	-30.334	-0.000	-0.000	0.000
5193	5201	5202	5190	3	30.334	0.000	-30.334	-0.000	-0.000	0.000
5193	5192	5191	5190	3	30.334	0.000	-30.334	-0.000	-0.000	0.000
5214	5213	5212	5211	3	21.738	2.408	-16.966	-7.180	-0.000	0.000
5210	5209	5208	5207	3	21.738	2.408	-16.966	-7.180	-0.000	0.000
5211	5210	5209	5208	3	21.738	2.408	-16.966	-7.180	-0.000	0.000
5212	5211	5210	5209	3	21.738	2.408	-16.966	-7.180	-0.000	0.000
5213	5212	5211	5210	3	21.738	2.408	-16.966	-7.180	-0.000	0.000
5209	5208	5207	5206	3	58.576	0.000	-58.576	-0.000	-0.000	0.000
5208	5207	5206	5205	3	16.027	-4.391	-14.029	2.393	-0.000	0.000
5207	5206	5205	5204	3	30.334	0.000	-30.334	-0.000	-0.000	0.000
5216	5215	5214	5213	3	58.576	0.000	-58.576	-0.000	-0.000	0.000
5201	5193	5194	5200	3	9.079	0.000	-9.079	-0.000	-0.000	0.000
5200	5194	5193	5192	3	9.079	0.000	-9.079	-0.000	-0.000	0.000
5201	5193	5194	5195	3	9.079	0.000	-9.079	-0.000	-0.000	0.000
5195	5194	5193	5192	3	9.079	0.000	-9.079	-0.000	-0.000	0.000
5200	5194	5195	5196	3	30.334	0.000	-30.334	-0.000	-0.000	0.000
5201	5193	5192	5191	3	30.334	0.000	-30.334	-0.000	-0.000	0.000
5199	5200	5194	5193	3	30.334	0.000	-30.334	-0.000	-0.000	0.000
5202	5201	5193	5194	3	30.334	0.000	-30.334	-0.000	-0.000	0.000
5196	5195	5194	5193	3	30.334	0.000	-30.334	-0.000	-0.000	0.000
5199	5200	5194	5195	3	30.334	0.000	-30.334	-0.000	-0.000	0.000
5202	5201	5193	5192	3	30.334	0.000	-30.334	-0.000	-0.000	0.000
5242	5206	5207	5208	3	16.027	-4.391	-14.029	2.393	-0.000	0.000
5197	5199	5200	5194	3	30.334	0.000	-30.334	-0.000	-0.000	0.000
5197	5196	5195	5194	3	30.334	0.000	-30.334	-0.000	-0.000	0.000
5243	5242	5206	5207	3	30.334	0.000	-30.334	-0.000	-0.000	0.000
5232	5227	5228	5229	3	30.334	0.000	-30.334	-0.000	-0.000	0.000
5243	5242	5206	5205	3	30.334	0.000	-30.334	-0.000	-0.000	0.000
5202	5190	5191	5192	3	30.334	0.000	-30.334	-0.000	-0.000	0.000
5242	5243	5203	5204	3	30.334	0.000	-30.334	-0.000	-0.000	0.000
5232	5231	5230	5229	3	30.334	0.000	-30.334	-0.000	-0.000	0.000
5231	5230	5229	5228	3	30.334	0.000	-30.334	-0.000	-0.000	0.000
5230	5229	5228	5227	3	30.334	0.000	-30.334	-0.000	-0.000	0.000
5206	5205	5204	5203	3	30.334	0.000	-30.334	-0.000	-0.000	0.000
5206	5242	5243	5203	3	30.334	0.000	-30.334	-0.000	-0.000	0.000
5243	5203	5204	5205	3	30.334	0.000	-30.334	-0.000	-0.000	0.000
5242	5206	5205	5204	3	30.334	0.000	-30.334	-0.000	-0.000	0.000
5231	5232	5227	5228	3	30.334	0.000	-30.334	-0.000	-0.000	0.000
5200	5199	5197	5196	3	30.334	0.000	-30.334	-0.000	-0.000	0.000
5201	5202	5190	5191	3	30.334	0.000	-30.334	-0.000	-0.000	0.000
5230	5231	5232	5227	3	30.334	0.000	-30.334	-0.000	-0.000	0.000
5199	5197	5196	5195	3	30.334	0.000	-30.334	-0.000	-0.000	0.000
5231	5232	5227	5226	3	30.334	0.000	-30.334	-0.000	-0.000	0.000
5229	5228	5227	5226	3	30.334	0.000	-30.334	-0.000	-0.000	0.000
5242	5243	5203	5186	3	30.334	0.000	-30.334	-0.000	-0.000	0.000
5205	5204	5203	5186	3	30.334	0.000	-30.334	-0.000	-0.000	0.000
5200	5199	5197	5198	3	0.0	0.0	0.0	-0.0	-0.0	0.0
5192	5191	5190	5189	3	30.334	0.000	-30.334	-0.000	-0.000	0.000
5201	5202	5190	5189	3	30.334	0.000	-30.334	-0.000	-0.000	0.000
5232	5227	5226	5215	3	0.000	0.000	0.000	-0.000	-0.000	0.000
5228	5227	5226	5215	3	0.000	0.000	0.000	-0.000	-0.000	0.000
5232	5227	5226	5225	3	0.000	0.000	0.000	-0.000	-0.000	0.000
5228	5227	5226	5225	3	0.000	0.000	0.000	-0.000	-0.000	0.000
5243	5203	5186	5187	3	5.184	35.932	-14.355	-26.761	-0.000	0.000
5204	5203	5186	5187	3	5.184	35.932	-14.355	-26.761	-0.000	0.000
5204	5203	5186	5185	3	5.184	35.932	-14.355	-26.761	-0.000	0.000
5243	5203	5186	5185	3	5.184	35.932	-14.355	-26.761	-0.000	0.000
5191	5190	5189	5188	3	12.552	0.000	-12.552	-0.000	-0.000	0.000
5202	5190	5189	5188	3	12.552	0.000	-12.552	-0.000	-0.000	0.000
5227	5226	5215	5214	3	6.322	-2.485	0.707	-4.544	-0.000	0.000
5227	5226	5215	5216	3	0.527	-6.397	-1.695	7.565	-0.000	0.000
5227	5226	5225	5219	3	1.715	2.845	1.046	-5.607	-0.000	0.000
5203	5186	5187	5188	3	1.789	3.492	0.536	-5.816	-0.000	0.000
5190	5189	5188	5187	3	1.715	2.845	1.046	-5.607	-0.000	0.000
5233	5226	5227	5228	3	0.000	0.000	0.000	-0.000	-0.000	0.000
5233	5226	5227	5232	3	0.000	0.000	0.000	-0.000	-0.000	0.000
5233	5226	5215	5214	3	6.322	-2.485	0.707	-4.544	-0.000	0.000
5233	5226	5215	5216	3	0.527	-6.397	-1.695	7.565	-0.000	0.000
5233	5226	5225	5219	3	1.715	2.845	1.046	-5.607	-0.000	0.000
5215	5214	5213	5212	3	21.738	2.408	-16.966	-7.180	-0.000	0.000
5220	5219	5216	5215	3	21.738	2.408	-16.966	-7.180	-0.000	0.000
5220	5219	5216	5217	3	-0.778	-2.335	0.000	3.113	-0.000	0.000
5241	5209	5208	5207	3	58.576	0.000	-58.576	-0.000	-0.000	0.000
5237	5211	5210	5209	3	58.576	0.000	-58.576	-0.000	-0.000	0.000
5241	5209	5210	5211	3	58.576	0.000	-58.576	-0.000	-0.000	0.000
5237	5211	5212	5213	3	58.576	0.000	-58.576	-0.000	-0.000	0.000
5226	5215	5214	5213	3	-0.778	-2.335	0.000	3.113	-0.000	0.000
5226	5215	5216	5219	3	58.576	0.000	-58.576	-0.000	-0.000	0.000
5226	5215	5216	5217	3	58.576	0.000	-58.576	-0.000	-0.000	0.000
5238	5241	5209	5208	3	0.527	-6.397	-1.695	7.565	-0.000	0.000
5238	5237	5211	5212	3	0.527	-6.397	-1.695	7.565	-0.000	0.000
5238	5237	5211	5210	3	0.527	-6.397	-1.695	7.565	-0.000	0.000
5238	5241	5209	5210	3	0.527	-6.397	-1.695	7.565	-0.000	0.000
5241	5238	5237	5211	3	2.301	-1.464	0.837	-1.674	-0.000	0.000
5240	5238	5241	5209	3	2.301	-1.464	0.837	-1.674	-0.000	0.000
5237	5238	5241	5209	3	2.301	-1.464	0.837	-1.674	-0.000	0.000
5239	5238	5241	5209	3	2.301	-1.464	0.837	-1.674	-0.000	0.000
5240	5238	5237	5211	3	2.301	-1.464	0.837	-1.674	-0.000	0.000
5239	5238	5237	5211	3	2.301	-1.464	0.837	-1.674	-0.000	0.000
5188	5187	5186	5185	3	1.789	3.492	0.536	-5.816	-0.000	0.000
5226	5225	5219	5216	3	30.334	0.000	-30.334	-0.000	-0.000	0.000
5226	5225	5219	5220	3	30.334	0.000	-30.334	-0.000	-0.000	0.000
5219	5216	5215	5214	3	58.576	0.000	-58.576	-0.000	-0.000	0.000
5219	5225	5226	5215	3	1.715	2.845	1.046	-5.607	-0.000	0.000
5217	5216	5215	5214	3	58.576	0.000	-58.576	-0.000	-0.000	0.000
5221	5220	5219	5216	3	58.576	0.000	-58.576	-0.000	-0.000	0.000
5223	5220	5219	5216	3	58.576	0.000	-58.576	-0.000	-0.000	0.000
5234	5233	5226	5227	3	0.000	0.000	0.000	-0.000	-0.000	0.000
5235	5233	5226	5227	3	0.000	0.000	0.000	-0.000	-0.000	0.000
5236	5233	5226	5227	3	0.000	0.000	0.000	-0.000	-0.000	0.000
5235	5233	5226	5215	3	0.000	0.000	0.000	-0.000	-0.000	0.000
5234	5233	5226	5215	3	0.000	0.000	0.000	-0.000	-0.000	0.000
5236	5233	5226	5215	3	0.000	0.000	0.000	-0.000	-0.000	0.000
5235	5233	5226	5225	3	1.130	3.389	0.000	-4.519	-0.000	0.000
5236	5233	5226	5225	3	1.130	3.389	0.000	-4.519	-0.000	0.000
5234	5233	5226	5225	3	1.130	3.389	0.000	-4.519	-0.000	0.000
5264	5210	5209	5208	3	58.576	0.000	-58.576	-0.000	-0.000	0.000
5264	5210	5211	5212	3	58.576	0.000	-58.576	-0.000	-0.000	0.000
5264	5210	5211	5237	3	58.576	0.000	-58.576	-0.000	-0.000	0.000
5264	5210	5209	5241	3	58.576	0.000	-58.576	-0.000	-0.000	0.000
5253	5195	5194	5193	3	30.334	0.000	-30.334	-0.000	-0.000	0.000
5252	5192	5193	5194	3	30.334	0.000	-30.334	-0.000	-0.000	0.000
5258	5201	5193	5194	3	30.334	0.000	-30.334	-0.000	-0.000	0.000
5257	5200	5194	5193	3	30.334	0.000	-30.334	-0.000	-0.000	0.000
5257	5200	5194	5195	3	30.334	0.000	-30.334	-0.000	-0.000	0.000
5253	5195	5194	5200	3	30.334	0.000	-30.334	-0.000	-0.000	0.000
5252	5192	5193	5201	3	30.334	0.000	-30.334	-0.000	-0.000	0.000
5258	5201	5193	5192	3	30.334	0.000	-30.334	-0.000	-0.000	0.000
5251	5191	5192	5193	3	30.334	0.000	-30.334	-0.000	-0.000	0.000
5259	5202	5201	5193	3	30.334	0.000	-30.334	-0.000	-0.000	0.000
5254	5196	5195	5194	3	30.334	0.000	-30.334	-0.000	-0.000	0.000
5256	5199	5200	5194	3	30.334	0.000	-30.334	-0.000	-0.000	0.000
5261	5205	5206	5207	3	30.334	0.000	-30.334	-0.000	-0.000	0.000
5283	5242	5206	5207	3	30.334	0.000	-30.334	-0.000	-0.000	0.000
5268	5228	5229	5230	3	30.334	0.000	-30.334	-0.000	-0.000	0.000
5256	5199	5197	5196	3	30.334	0.000	-30.334	-0.000	-0.000	0.000
5271	5231	5230	5229	3	30.334	0.000	-30.334	-0.000	-0.000	0.000
5283	5242	5243	5203	3	30.334	0.000	-30.334	-0.000	-0.000	0.000
5269	5229	5228	5227	3	30.334	0.000	-30.334	-0.000	-0.000	0.000
5284	5243	5242	5206	3	30.334	0.000	-30.334	-0.000	-0.000	0.000
5270	5230	5229	5228	3	30.334	0.000	-30.334	-0.000	-0.000	0.000
5259	5202	5190	5191	3	30.334	0.000	-30.334	-0.000	-0.000	0.000
5258	5201	5202	5190	3	30.334	0.000	-30.334	-0.000	-0.000	0.000
5283	5242	5206	5205	3	30.334	0.000	-30.334	-0.000	-0.000	0.000
5284	5243	5203	5204	3	30.334	0.000	-30.334	-0.000	-0.000	0.000
5271	5231	5232	5227	3	30.334	0.000	-30.334	-0.000	-0.000	0.000
5268	5228	5227	5232	3	30.334	0.000	-30.334	-0.000	-0.000	0.000
5253	5195	5196	5197	3	30.334	0.000	-30.334	-0.000	-0.000	0.000
5254	5196	5197	5199	3	30.334	0.000	-30.334	-0.000	-0.000	0.000
5251	5191	5190	5202	3	30.334	0.000	-30.334	-0.000	-0.000	0.000
5260	5204	5203	5243	3	30.334	0.000	-30.334	-0.000	-0.000	0.000
5260	5204	5205	5206	3	30.334	0.000	-30.334	-0.000	-0.000	0.000
5257	5200	5199	5197	3	30.334	0.000	-30.334	-0.000	-0.000	0.000
5261	5205	5206	5242	3	30.334	0.000	-30.334	-0.000	-0.000	0.000
5270	5230	5231	5232	3	30.334	0.000	-30.334	-0.000	-0.000	0.000
5272	5232	5231	5230	3	30.334	0.000	-30.334	-0.000	-0.000	0.000
5269	5229	5230	5231	3	30.334	0.000	-30.334	-0.000	-0.000	0.000
5272	5232	5227	5228	3	30.334	0.000	-30.334	-0.000	-0.000	0.000
5252	5192	5191	5190	3	30.334	0.000	-30.334	-0.000	-0.000	0.000
5261	5205	5204	5203	3	30.334	0.000	-30.334	-0.000	-0.000	0.000
5272	5232	5227	5226	3	30.334	0.000	-30.334	-0.000	-0.000	0.000
5268	5228	5227	5226	3	30.334	0.000	-30.334	-0.000	-0.000	0.000
5261	5205	5204	5260	3	30.334	0.000	-30.334	-0.000	-0.000	0.000
5284	5243	5242	5283	3	30.334	0.000	-30.334	-0.000	-0.000	0.000
5270	5230	5229	5269	3	30.334	0.000	-30.334	-0.000	-0.000	0.000
5254	5196	5195	5253	3	30.334	0.000	-30.334	-0.000	-0.000	0.000
5259	5202	5201	5258	3	30.334	0.000	-30.334	-0.000	-0.000	0.000
5257	5200	5199	5256	3	30.334	0.000	-30.334	-0.000	-0.000	0.000
5269	5229	5228	5268	3	30.334	0.000	-30.334	-0.000	-0.000	0.000
5252	5192	5191	5251	3	30.334	0.000	-30.334	-0.000	-0.000	0.000
5271	5231	5230	5270	3	30.334	0.000	-30.334	-0.000	-0.000	0.000
5272	5232	5231	5271	3	30.334	0.000	-30.334	-0.000	-0.000	0.000
5284	5243	5203	5186	3	30.334	0.000	-30.334	-0.000	-0.000	0.000
5260	5204	5203	5186	3	30.334	0.000	-30.334	-0.000	-0.000	0.000
5254	5196	5197	5198	3	0.0	0.0	0.0	-0.0	-0.0	0.0
5256	5199	5197	5198	3	0.0	0.0	0.0	-0.0	-0.0	0.0
5251	5191	5190	5189	3	30.334	0.000	-30.334	-0.000	-0.000	0.000
5259	5202	5190	5189	3	30.334	0.000	-30.334	-0.000	-0.000	0.000
5265	5212	5211	5210	3	58.576	0.000	-58.576	-0.000	-0.000	0.000
5265	5212	5213	5214	3	58.576	0.000	-58.576	-0.000	-0.000	0.000
5267	5214	5213	5212	3	58.576	0.000	-58.576	-0.000	-0.000	0.000
5266	5213	5212	5211	3	58.576	0.000	-58.576	-0.000	-0.000	0.000
5263	5208	5209	5210	3	58.576	0.000	-58.576	-0.000	-0.000	0.000
5262	5207	5208	5209	3	58.576	0.000	-58.576	-0.000	-0.000	0.000
5263	5208	5207	5206	3	58.576	0.000	-58.576	-0.000	-0.000	0.000
5266	5213	5214	5215	3	58.576	0.000	-58.576	-0.000	-0.000	0.000
5265	5212	5211	5237	3	58.576	0.000	-58.576	-0.000	-0.000	0.000
5263	5208	5209	5241	3	58.576	0.000	-58.576	-0.000	-0.000	0.000
5263	5208	5207	5262	3	58.576	0.000	-58.576	-0.000	-0.000	0.000
5266	5213	5212	5265	3	58.576	0.000	-58.576	-0.000	-0.000	0.000
5267	5214	5213	5266	3	58.576	0.000	-58.576	-0.000	-0.000	0.000
5262	5207	5206	5242	3	-0.778	-2.335	0.000	3.113	-0.000	0.000
5262	5207	5206	5205	3	-0.778	-2.335	0.000	3.113	-0.000	0.000
5267	5214	5215	5216	3	58.576	0.000	-58.576	-0.000	-0.000	0.000
5267	5214	5215	5226	3	58.576	0.000	-58.576	-0.000	-0.000	0.000
5281	5241	5209	5208	3	-0.778	-2.335	0.000	3.113	-0.000	0.000
5281	5241	5209	5210	3	-0.778	-2.335	0.000	3.113	-0.000	0.000
5282	5241	5209	5208	3	-0.778	-2.335	0.000	3.113	-0.000	0.000
5274	5237	5211	5212	3	-0.778	-2.335	0.000	3.113	-0.000	0.000
5282	5241	5209	5210	3	-0.778	-2.335	0.000	3.113	-0.000	0.000
5273	5237	5211	5210	3	-0.778	-2.335	0.000	3.113	-0.000	0.000
5274	5237	5211	5210	3	-0.778	-2.335	0.000	3.113	-0.000	0.000
5273	5237	5211	5212	3	-0.778	-2.335	0.000	3.113	-0.000	0.000
5276	5239	5238	5241	3	0.628	1.883	0.000	-2.510	-0.000	0.000
5275	5239	5238	5240	3	0.628	1.883	0.000	-2.510	-0.000	0.000
5275	5239	5238	5237	3	0.628	1.883	0.000	-2.510	-0.000	0.000
5277	5239	5238	5240	3	0.628	1.883	0.000	-2.510	-0.000	0.000
5279	5240	5238	5237	3	0.628	1.883	0.000	-2.510	-0.000	0.000
5278	5240	5238	5237	3	0.628	1.883	0.000	-2.510	-0.000	0.000
5277	5239	5238	5237	3	0.628	1.883	0.000	-2.510	-0.000	0.000
5279	5240	5238	5239	3	0.628	1.883	0.000	-2.510	-0.000	0.000
5276	5239	5238	5237	3	0.628	1.883	0.000	-2.510	-0.000	0.000
5281	5241	5238	5237	3	0.628	1.883	0.000	-2.510	-0.000	0.000
5281	5241	5238	5239	3	0.628	1.883	0.000	-2.510	-0.000	0.000
5274	5237	5238	5239	3	0.628	1.883	0.000	-2.510	-0.000	0.000
5277	5239	5238	5241	3	0.628	1.883	0.000	-2.510	-0.000	0.000
5274	5237	5238	5240	3	0.628	1.883	0.000	-2.510	-0.000	0.000
5282	5241	5238	5239	3	0.628	1.883	0.000	-2.510	-0.000	0.000
5278	5240	5238	5241	3	0.628	1.883	0.000	-2.510	-0.000	0.000
5279	5240	5238	5241	3	0.628	1.883	0.000	-2.510	-0.000	0.000
5280	5240	5238	5237	3	0.628	1.883	0.000	-2.510	-0.000	0.000
5273	5237	5238	5240	3	0.628	1.883	0.000	-2.510	-0.000	0.000
5273	5237	5238	5239	3	0.628	1.883	0.000	-2.510	-0.000	0.000
5278	5240	5238	5239	3	0.628	1.883	0.000	-2.510	-0.000	0.000
5274	5237	5238	5241	3	0.628	1.883	0.000	-2.510	-0.000	0.000
5282	5241	5238	5240	3	0.628	1.883	0.000	-2.510	-0.000	0.000
5276	5239	5238	5240	3	0.628	1.883	0.000	-2.510	-0.000	0.000
5275	5239	5238	5241	3	0.628	1.883	0.000	-2.510	-0.000	0.000
5282	5241	5238	5237	3	0.628	1.883	0.000	-2.510	-0.000	0.000
5273	5237	5238	5241	3	0.628	1.883	0.000	-2.510	-0.000	0.000
5280	5240	5238	5239	3	0.628	1.883	0.000	-2.510	-0.000	0.000
5281	5241	5238	5240	3	0.628	1.883	0.000	-2.510	-0.000	0.000
5280	5240	5238	5241	3	0.628	1.883	0.000	-2.510	-0.000	0.000
5249	5188	5187	5248	3	0.628	1.883	0.000	-2.510	-0.000	0.000
5250	5188	5187	5247	3	0.628	1.883	0.000	-2.510	-0.000	0.000
5249	5188	5187	5247	3	0.628	1.883	0.000	-2.510	-0.000	0.000
5250	5188	5187	5248	3	0.628	1.883	0.000	-2.510	-0.000	0.000
5250	5188	5187	5186	3	-4.096	5.088	2.966	-3.958	-0.000	0.000
5249	5188	5187	5186	3	-4.096	5.088	2.966	-3.958	-0.000	0.000
5248	5187	5188	5189	3	0.979	2.937	0.000	-3.916	-0.000	0.000
5247	5187	5188	5189	3	0.979	2.937	0.000	-3.916	-0.000	0.000
5248	5187	5186	5203	3	1.172	3.515	0.000	-4.686	-0.000	0.000
5244	5185	5186	5203	3	1.172	3.515	0.000	-4.686	-0.000	0.000
5247	5187	5186	5203	3	1.172	3.515	0.000	-4.686	-0.000	0.000
5245	5185	5186	5203	3	1.172	3.515	0.000	-4.686	-0.000	0.000
5246	5185	5186	5203	3	1.172	3.515	0.000	-4.686	-0.000	0.000
5247	5187	5186	5185	3	1.172	3.515	0.000	-4.686	-0.000	0.000
5245	5185	5186	5187	3	1.172	3.515	0.000	-4.686	-0.000	0.000
5248	5187	5186	5185	3	1.172	3.515	0.000	-4.686	-0.000	0.000
5246	5185	5186	5187	3	1.172	3.515	0.000	-4.686	-0.000	0.000
5244	5185	5186	5187	3	1.172	3.515	0.000	-4.686	-0.000	0.000
5249	5188	5189	5190	3	1.590	4.770	0.000	-6.360	-0.000	0.000
5250	5188	5189	5190	3	1.590	4.770	0.000	-6.360	-0.000	0.000
5255	5198	5197	5199	3	0.0	0.0	0.0	-0.0	-0.0	0.0
5255	5198	5197	5196	3	0.0	0.0	0.0	-0.0	-0.0	0.0
5198	5197	5196	5195	3	0.0	0.0	0.0	-0.0	-0.0	0.0
5225	5226	5215	5214	3	2.874	0.582	2.092	-5.548	-0.000	0.000
5225	5226	5215	5216	3	1.046	-1.046	0.000	-0.000	-0.000	0.000
5189	5188	5187	5186	3	16.736	-16.736	0.000	-0.000	-0.000	0.000
5225	5219	5216	5215	3	1.046	-1.046	0.000	-0.000	-0.000	0.000
5225	5219	5216	5217	3	9.079	0.000	-9.079	-0.000	-0.000	0.000
5294	5293	5292	5291	3	30.334	0.000	-30.334	-0.000	-0.000	0.000
5293	5301	5302	5290	3	30.334	0.000	-30.334	-0.000	-0.000	0.000
5293	5292	5291	5290	3	30.334	0.000	-30.334	-0.000	-0.000	0.000
5314	5313	5312	5311	3	21.738	2.408	-16.966	-7.180	-0.000	0.000
5310	5309	5308	5307	3	21.738	2.408	-16.966	-7.180	-0.000	0.000
5311	5310	5309	5308	3	21.738	2.408	-16.966	-7.180	-0.000	0.000
5312	5311	5310	5309	3	21.738	2.408	-16.966	-7.180	-0.000	0.000
5313	5312	5311	5310	3	21.738	2.408	-16.966	-7.180	-0.000	0.000
5309	5308	5307	5306	3	58.576	0.000	-58.576	-0.000	-0.000	0.000
5308	5307	5306	5305	3	16.027	-4.391	-14.029	2.393	-0.000	0.000
5307	5306	5305	5304	3	30.334	0.000	-30.334	-0.000	-0.000	0.000
5316	5315	5314	5313	3	58.576	0.000	-58.576	-0.000	-0.000	0.000
5301	5293	5294	5300	3	9.079	0.000	-9.079	-0.000	-0.000	0.000
5300	5294	5293	5292	3	9.079	0.000	-9.079	-0.000	-0.000	0.000
5301	5293	5294	5295	3	9.079	0.000	-9.079	-0.000	-0.000	0.000
5295	5294	5293	5292	3	9.079	0.000	-9.079	-0.000	-0.000	0.000
5300	5294	5295	5296	3	30.334	0.000	-30.334	-0.000	-0.000	0.000
5301	5293	5292	5291	3	30.334	0.000	-30.334	-0.000	-0.000	0.000
5299	5300	5294	5293	3	30.334	0.000	-30.334	-0.000	-0.000	0.000
5302	5301	5293	5294	3	30.334	0.000	-30.334	-0.000	-0.000	0.000
5296	5295	5294	5293	3	30.334	0.000	-30.334	-0.000	-0.000	0.000
5299	5300	5294	5295	3	30.334	0.000	-30.334	-0.000	-0.000	0.000
5302	5301	5293	5292	3	30.334	0.000	-30.334	-0.000	-0.000	0.000
5342	5306	5307	5308	3	16.027	-4.391	-14.029	2.393	-0.000	0.000
5297	5299	5300	5294	3	30.334	0.000	-30.334	-0.000	-0.000	0.000
5297	5296	5295	5294	3	30.334	0.000	-30.334	-0.000	-0.000	0.000
5343	5342	5306	5307	3	30.334	0.000	-30.334	-0.000	-0.000	0.000
5332	5327	5328	5329	3	30.334	0.000	-30.334	-0.000	-0.000	0.000
5343	5342	5306	5305	3	30.334	0.000	-30.334	-0.000	-0.000	0.000
5302	5290	5291	5292	3	30.334	0.000	-30.334	-0.000	-0.000	0.000
5342	5343	5303	5304	3	30.334	0.000	-30.334	-0.000	-0.000	0.000
5332	5331	5330	5329	3	30.334	0.000	-30.334	-0.000	-0.000	0.000
5331	5330	5329	5328	3	30.334	0.000	-30.334	-0.000	-0.000	0.000
5330	5329	5328	5327	3	30.334	0.000	-30.334	-0.000	-0.000	0.000
5306	5305	5304	5303	3	30.334	0.000	-30.334	-0.000	-0.000	0.000
5306	5342	5343	5303	3	30.334	0.000	-30.334	-0.000	-0.000	0.000
5343	5303	5304	5305	3	30.334	0.000	-30.334	-0.000	-0.000	0.000
5342	5306	5305	5304	3	30.334	0.000	-30.334	-0.000	-0.000	0.000
5331	5332	5327	5328	3	30.334	0.000	-30.334	-0.000	-0.000	0.000
5300	5299	5297	5296	3	30.334	0.000	-30.334	-0.000	-0.000	0.000
5301	5302	5290	5291	3	30.334	0.000	-30.334	-0.000	-0.000	0.000
5330	5331	5332	5327	3	30.334	0.000	-30.334	-0.000	-0.000	0.000
5299	5297	5296	5295	3	30.334	0.000	-30.334	-0.000	-0.000	0.000
5331	5332	5327	5326	3	30.334	0.000	-30.334	-0.000	-0.000	0.000
5329	5328	5327	5326	3	30.334	0.000	-30.334	-0.000	-0.000	0.000
5342	5343	5303	5286	3	30.334	0.000	-30.334	-0.000	-0.000	0.000
5305	5304	5303	5286	3	30.334	0.000	-30.334	-0.000	-0.000	0.000
5300	5299	5297	5298	3	0.0	0.0	0.0	-0.0	-0.0	0.0
5292	5291	5290	5289	3	30.334	0.000	-30.334	-0.000	-0.000	0.000
5301	5302	5290	5289	3	30.334	0.000	-30.334	-0.000	-0.000	0.000
5332	5327	5326	5315	3	0.000	0.000	0.000	-0.000	-0.000	0.000
5328	5327	5326	5315	3	0.000	0.000	0.000	-0.000	-0.000	0.000
5332	5327	5326	5325	3	0.000	0.000	0.000	-0.000	-0.000	0.000
5328	5327	5326	5325	3	0.000	0.000	0.000	-0.000	-0.000	0.000
5343	5303	5286	5287	3	5.184	35.932	-14.355	-26.761	-0.000	0.000
5304	5303	5286	5287	3	5.184	35.932	-14.355	-26.761	-0.000	0.000
5304	5303	5286	5285	3	5.184	35.932	-14.355	-26.761	-0.000	0.000
5343	5303	5286	5285	3	5.184	35.932	-14.355	-26.761	-0.000	0.000
5291	5290	5289	5288	3	12.552	0.000	-12.552	-0.000	-0.000	0.000
5302	5290	5289	5288	3	12.552	0.000	-12.552	-0.000	-0.000	0.000
5327	5326	5315	5314	3	6.322	-2.485	0.707	-4.544	-0.000	0.000
5327	5326	5315	5316	3	0.527	-6.397	-1.695	7.565	-0.000	0.000
5327	5326	5325	5319	3	1.715	2.845	1.046	-5.607	-0.000	0.000
5303	5286	5287	5288	3	1.789	3.492	0.536	-5.816	-0.000	0.000
5290	5289	5288	5287	3	1.715	2.845	1.046	-5.607	-0.000	0.000
5333	5326	5327	5328	3	0.000	0.000	0.000	-0.000	-0.000	0.000
5333	5326	5327	5332	3	0.000	0.000	0.000	-0.000	-0.000	0.000
5333	5326	5315	5314	3	6.322	-2.485	0.707	-4.544	-0.000	0.000
5333	5326	5315	5316	3	0.527	-6.397	-1.695	7.565	-0.000	0.000
5333	5326	5325	5319	3	1.715	2.845	1.046	-5.607	-0.000	0.000
5315	5314	5313	5312	3	21.738	2.408	-16.966	-7.180	-0.000	0.000
5320	5319	5316	5315	3	21.738	2.408	-16.966	-7.180	-0.000	0.000
5320	5319	5316	5317	3	-0.778	-2.335	0.000	3.113	-0.000	0.000
5341	5309	5308	5307	3	58.576	0.000	-58.576	-0.000	-0.000	0.000
5337	5311	5310	5309	3	58.576	0.000	-58.576	-0.000	-0.000	0.000
5341	5309	5310	5311	3	58.576	0.000	-58.576	-0.000	-0.000	0.000
5337	5311	5312	5313	3	58.576	0.000	-58.576	-0.000	-0.000	0.000
5326	5315	5314	5313	3	-0.778	-2.335	0.000	3.113	-0.000	0.000
5326	5315	5316	5319	3	58.576	0.000	-58.576	-0.000	-0.000	0.000
5326	5315	5316	5317	3	58.576	0.000	-58.576	-0.000	-0.000	0.000
5338	5341	5309	5308	3	0.527	-6.397	-1.695	7.565	-0.000	0.000
5338	5337	5311	5312	3	0.527	-6.397	-1.695	7.565	-0.000	0.000
5338	5337	5311	5310	3	0.527	-6.397	-1.695	7.565	-0.000	0.000
5338	5341	5309	5310	3	0.527	-6.397	-1.695	7.565	-0.000	0.000
5341	5338	5337	5311	3	2.301	-1.464	0.837	-1.674	-0.000	0.000
5340	5338	5341	5309	3	2.301	-1.464	0.837	-1.674	-0.000	0.000
5337	5338	5341	5309	3	2.301	-1.464	0.837	-1.674	-0.000	0.000
5339	5338	5341	5309	3	2.301	-1.464	0.837	-1.674	-0.000	0.000
5340	5338	5337	5311	3	2.301	-1.464	0.837	-1.674	-0.000	0.000
5339	5338	5337	5311	3	2.301	-1.464	0.837	-1.674	-0.000	0.000
5288	5287	5286	5285	3	1.789	3.492	0.536	-5.816	-0.000	0.000
5326	5325	5319	5316	3	30.334	0.000	-30.334	-0.000	-0.000	0.000
5326	5325	5319	5320	3	30.334	0.000	-30.334	-0.000	-0.000	0.000
5319	5316	5315	5314	3	58.576	0.000	-58.576	-0.000	-0.000	0.000
5319	5325	5326	5315	3	1.715	2.845	1.046	-5.607	-0.000	0.000
5317	5316	5315	5314	3	58.576	0.000	-58.576	-0.000	-0.000	0.000
5321	5320	5319	5316	3	58.576	0.000	-58.576	-0.000	-0.000	0.000
5323	5320	5319	5316	3	58.576	0.000	-58.576	-0.000	-0.000	0.000
5334	5333	5326	5327	3	0.000	0.000	0.000	-0.000	-0.000	0.000
5335	5333	5326	5327	3	0.000	0.000	0.000	-0.000	-0.000	0.000
5336	5333	5326	5327	3	0.000	0.000	0.000	-0.000	-0.000	0.000
5335	5333	5326	5315	3	0.000	0.000	0.000	-0.000	-0.000	0.000
5334	5333	5326	5315	3	0.000	0.000	0.000	-0.000	-0.000	0.000
5336	5333	5326	5315	3	0.000	0.000	0.000	-0.000	-0.000	0.000
5335	5333	5326	5325	3	1.130	3.389	0.000	-4.519	-0.000	0.000
5336	5333	5326	5325	3	1.130	3.389	0.000	-4.519	-0.000	0.000
5334	5333	5326	5325	3	1.130	3.389	0.000	-4.519	-0.000	0.000
5364	5310	5309	5308	3	58.576	0.000	-58.576	-0.000	-0.000	0.000
5364	5310	5311	5312	3	58.576	0.000	-58.576	-0.000	-0.000	0.000
5364	5310	5311	5337	3	58.576	0.000	-58.576	-0.000	-0.000	0.000
5364	5310	5309	5341	3	58.576	0.000	-58.576	-0.000	-0.000	0.000
5353	5295	5294	5293	3	30.334	0.000	-30.334	-0.000	-0.000	0.000
5352	5292	5293	5294	3	30.334	0.000	-30.334	-0.000	-0.000	0.000
5358	5301	5293	5294	3	30.334	0.000	-30.334	-0.000	-0.000	0.000
5357	5300	5294	5293	3	30.334	0.000	-30.334	-0.000	-0.000	0.000
5357	5300	5294	5295	3	30.334	0.000	-30.334	-0.000	-0.000	0.000
5353	5295	5294	5300	3	30.334	0.000	-30.334	-0.000	-0.000	0.000
5352	5292	5293	5301	3	30.334	0.000	-30.334	-0.000	-0.000	0.000
5358	5301	5293	5292	3	30.334	0.000	-30.334	-0.000	-0.000	0.000
5351	5291	5292	5293	3	30.334	0.000	-30.334	-0.000	-0.000	0.000
5359	5302	5301	5293	3	30.334	0.000	-30.334	-0.000	-0.000	0.000
5354	5296	5295	5294	3	30.334	0.000	-30.334	-0.000	-0.000	0.000
5356	5299	5300	5294	3	30.334	0.000	-30.334	-0.000	-0.000	0.000
5361	5305	5306	5307	3	30.334	0.000	-30.334	-0.000	-0.000	0.000
5383	5342	5306	5307	3	30.334	0.000	-30.334	-0.000	-0.000	0.000
5368	5328	5329	5330	3	30.334	0.000	-30.334	-0.000	-0.000	0.000
5356	5299	5297	5296	3	30.334	0.000	-30.334	-0.000	-0.000	0.000
5371	5331	5330	5329	3	30.334	0.000	-30.334	-0.000	-0.000	0.000
5383	5342	5343	5303	3	30.334	0.000	-30.334	-0.000	-0.000	0.000
5369	5329	5328	5327	3	30.334	0.000	-30.334	-0.000	-0.000	0.000
5384	5343	5342	5306	3	30.334	0.000	-30.334	-0.000	-0.000	0.000
5370	5330	5329	5328	3	30.334	0.000	-30.334	-0.000	-0.000	0.000
5359	5302	5290	5291	3	30.334	0.000	-30.334	-0.000	-0.000	0.000
5358	5301	5302	5290	3	30.334	0.000	-30.334	-0.000	-0.000	0.000
5383	5342	5306	5305	3	30.334	0.000	-30.334	-0.000	-0.000	0.000
5384	5343	5303	5304	3	30.334	0.000	-30.334	-0.000	-0.000	0.000
5371	5331	5332	5327	3	30.334	0.000	-30.334	-0.000	-0.000	0.000
5368	5328	5327	5332	3	30.334	0.000	-30.334	-0.000	-0.000	0.000
5353	5295	5296	5297	3	30.334	0.000	-30.334	-0.000	-0.000	0.000
5354	5296	5297	5299	3	30.334	0.000	-30.334	-0.000	-0.000	0.000
5351	5291	5290	5302	3	30.334	0.000	-30.334	-0.000	-0.000	0.000
5360	5304	5303	5343	3	30.334	0.000	-30.334	-0.000	-0.000	0.000
5360	5304	5305	5306	3	30.334	0.000	-30.334	-0.000	-0.000	0.000
5357	5300	5299	5297	3	30.334	0.000	-30.334	-0.000	-0.000	0.000
5361	5305	5306	5342	3	30.334	0.000	-30.334	-0.000	-0.000	0.000
5370	5330	5331	5332	3	30.334	0.000	-30.334	-0.000	-0.000	0.000
5372	5332	5331	5330	3	30.334	0.000	-30.334	-0.000	-0.000	0.000
5369	5329	5330	5331	3	30.334	0.000	-30.334	-0.000	-0.000	0.000
5372	5332	5327	5328	3	30.334	0.000	-30.334	-0.000	-0.000	0.000
5352	5292	5291	5290	3	30.334	0.000	-30.334	-0.000	-0.000	0.000
5361	5305	5304	5303	3	30.334	0.000	-30.334	-0.000	-0.000	0.000
5372	5332	5327	5326	3	30.334	0.000	-30.334	-0.000	-0.000	0.000
5368	5328	5327	5326	3	30.334	0.000	-30.334	-0.000	-0.000	0.000
5361	5305	5304	5360	3	30.334	0.000	-30.334	-0.000	-0.000	0.000
5384	5343	5342	5383	3	30.334	0.000	-30.334	-0.000	-0.000	0.000
5370	5330	5329	5369	3	30.334	0.000	-30.334	-0.000	-0.000	0.000
5354	5296	5295	5353	3	30.334	0.000	-30.334	-0.000	-0.000	0.000
5359	5302	5301	5358	3	30.334	0.000	-30.334	-0.000	-0.000	0.000
5357	5300	5299	5356	3	30.334	0.000	-30.334	-0.000	-0.000	0.000
5369	5329	5328	5368	3	30.334	0.000	-30.334	-0.000	-0.000	0.000
5352	5292	5291	5351	3	30.334	0.000	-30.334	-0.000	-0.000	0.000
5371	5331	5330	5370	3	30.334	0.000	-30.334	-0.000	-0.000	0.000
5372	5332	5331	5371	3	30.334	0.000	-30.334	-0.000	-0.000	0.000
5384	5343	5303	5286	3	30.334	0.000	-30.334	-0.000	-0.000	0.000
5360	5304	5303	5286	3	30.334	0.000	-30.334	-0.000	-0.000	0.000
5354	5296	5297	5298	3	0.0	0.0	0.0	-0.0	-0.0	0.0
5356	5299	5297	5298	3	0.0	0.0	0.0	-0.0	-0.0	0.0
5351	5291	5290	5289	3	30.334	0.000	-30.334	-0.000	-0.000	0.000
5359	5302	5290	5289	3	30.334	0.000	-30.334	-0.000	-0.000	0.000
5365	5312	5311	5310	3	58.576	0.000	-58.576	-0.000	-0.000	0.000
5365	5312	5313	5314	3	58.576	0.000	-58.576	-0.000	-0.000	0.000
5367	5314	5313	5312	3	58.576	0.000	-58.576	-0.000	-0.000	0.000
5366	5313	5312	5311	3	58.576	0.000	-58.576	-0.000	-0.000	0.000
5363	5308	5309	5310	3	58.576	0.000	-58.576	-0.000	-0.000	0.000
5362	5307	5308	5309	3	58.576	0.000	-58.576	-0.000	-0.000	0.000
5363	5308	5307	5306	3	58.576	0.000	-58.576	-0.000	-0.000	0.000
5366	5313	5314	5315	3	58.576	0.000	-58.576	-0.000	-0.000	0.000
5365	5312	5311	5337	3	58.576	0.000	-58.576	-0.000	-0.000	0.000
5363	5308	5309	5341	3	58.576	0.000	-58.576	-0.000	-0.000	0.000
5363	5308	5307	5362	3	58.576	0.000	-58.576	-0.000	-0.000	0.000
5366	5313	5312	5365	3	58.576	0.000	-58.576	-0.000	-0.000	0.000
5367	5314	5313	5366	3	58.576	0.000	-58.576	-0.000	-0.000	0.000
5362	5307	5306	5342	3	-0.778	-2.335	0.000	3.113	-0.000	0.000
5362	5307	5306	5305	3	-0.778	-2.335	0.000	3.113	-0.000	0.000
5367	5314	5315	5316	3	58.576	0.000	-58.576	-0.000	-0.000	0.000
5367	5314	5315	5326	3	58.576	0.000	-58.576	-0.000	-0.000	0.000
5381	5341	5309	5308	3	-0.778	-2.335	0.000	3.113	-0.000	0.000
5381	5341	5309	5310	3	-0.778	-2.335	0.000	3.113	-0.000	0.000
5382	5341	5309	5308	3	-0.778	-2.335	0.000	3.113	-0.000	0.000
5374	5337	5311	5312	3	-0.778	-2.335	0.000	3.113	-0.000	0.000
5382	5341	5309	5310	3	-0.778	-2.335	0.000	3.113	-0.000	0.000
5373	5337	5311	5310	3	-0.778	-2.335	0.000	3.113	-0.000	0.000
5374	5337	5311	5310	3	-0.778	-2.335	0.000	3.113	-0.000	0.000
5373	5337	5311	5312	3	-0.778	-2.335	0.000	3.113	-0.000	0.000
5376	5339	5338	5341	3	0.628	1.883	0.000	-2.510	-0.000	0.000
5375	5339	5338	5340	3	0.628	1.883	0.000	-2.510	-0.000	0.000
5375	5339	5338	5337	3	0.628	1.883	0.000	-2.510	-0.000	0.000
5377	5339	5338	5340	3	0.628	1.883	0.000	-2.510	-0.000	0.000
5379	5340	5338	5337	3	0.628	1.883	0.000	-2.510	-0.000	0.000
5378	5340	5338	5337	3	0.628	1.883	0.000	-2.510	-0.000	0.000
5377	5339	5338	5337	3	0.628	1.883	0.000	-2.510	-0.000	0.000
5379	5340	5338	5339	3	0.628	1.883	0.000	-2.510	-0.000	0.000
5376	5339	5338	5337	3	0.628	1.883	0.000	-2.510	-0.000	0.000
5381	5341	5338	5337	3	0.628	1.883	0.000	-2.510	-0.000	0.000
5381	5341	5338	5339	3	0.628	1.883	0.000	-2.510	-0.000	0.000
5374	5337	5338	5339	3	0.628	1.883	0.000	-2.510	-0.000	0.000
5377	5339	5338	5341	3	0.628	1.883	0.000	-2.510	-0.000	0.000
5374	5337	5338	5340	3	0.628	1.883	0.000	-2.510	-0.000	0.000
5382	5341	5338	5339	3	0.628	1.883	0.000	-2.510	-0.000	0.000
5378	5340	5338	5341	3	0.628	1.883	0.000	-2.510	-0.000	0.000
5379	5340	5338	5341	3	0.628	1.883	0.000	-2.510	-0.000	0.000
5380	5340	5338	5337	3	0.628	1.883	0.000	-2.510	-0.000	0.000
5373	5337	5338	5340	3	0.628	1.883	0.000	-2.510	-0.000	0.000
5373	5337	5338	5339	3	0.628	1.883	0.000	-2.510	-0.000	0.000
5378	5340	5338	5339	3	0.628	1.883	0.000	-2.510	-0.000	0.000
5374	5337	5338	5341	3	0.628	1.883	0.000	-2.510	-0.000	0.000
5382	5341	5338	5340	3	0.628	1.883	0.000	-2.510	-0.000	0.000
5376	5339	5338	5340	3	0.628	1.883	0.000	-2.510	-0.000	0.000
5375	5339	5338	5341	3	0.628	1.883	0.000	-2.510	-0.000	0.000
5382	5341	5338	5337	3	0.628	1.883	0.000	-2.510	-0.000	0.000
5373	5337	5338	5341	3	0.628	1.883	0.000	-2.510	-0.000	0.000
5380	5340	5338	5339	3	0.628	1.883	0.000	-2.510	-0.000	0.000
5381	5341	5338	5340	3	0.628	1.883	0.000	-2.510	-0.000	0.000
5380	5340	5338	5341	3	0.628	1.883	0.000	-2.510	-0.000	0.000
5349	5288	5287	5348	3	0.628	1.883	0.000	-2.510	-0.000	0.000
5350	5288	5287	5347	3	0.628	1.883	0.000	-2.510	-0.000	0.000
5349	5288	5287	5347	3	0.628	1.883	0.000	-2.510	-0.000	0.000
5350	5288	5287	5348	3	0.628	1.883	0.000	-2.510	-0.000	0.000
5350	5288	5287	5286	3	-4.096	5.088	2.966	-3.958	-0.000	0.000
5349	5288	5287	5286	3	-4.096	5.088	2.966	-3.958	-0.000	0.000
5348	5287	5288	5289	3	0.979	2.937	0.000	-3.916	-0.000	0.000
5347	5287	5288	5289	3	0.979	2.937	0.000	-3.916	-0.000	0.000
5348	5287	5286	5303	3	1.172	3.515	0.000	-4.686	-0.000	0.000
5344	5285	5286	5303	3	1.172	3.515	0.000	-4.686	-0.000	0.000
5347	5287	5286	5303	3	1.172	3.515	0.000	-4.686	-0.000	0.000
5345	5285	5286	5303	3	1.172	3.515	0.000	-4.686	-0.000	0.000
5346	5285	5286	5303	3	1.172	3.515	0.000	-4.686	-0.000	0.000
5347	5287	5286	5285	3	1.172	3.515	0.000	-4.686	-0.000	0.000
5345	5285	5286	5287	3	1.172	3.515	0.000	-4.686	-0.000	0.000
5348	5287	5286	5285	3	1.172	3.515	0.000	-4.686	-0.000	0.000
5346	5285	5286	5287	3	1.172	3.515	0.000	-4.686	-0.000	0.000
5344	5285	5286	5287	3	1.172	3.515	0.000	-4.686	-0.000	0.000
5349	5288	5289	5290	3	1.590	4.770	0.000	-6.360	-0.000	0.000
5350	5288	5289	5290	3	1.590	4.770	0.000	-6.360	-0.000	0.000
5355	5298	5297	5299	3	0.0	0.0	0.0	-0.0	-0.0	0.0
5355	5298	5297	5296	3	0.0	0.0	0.0	-0.0	-0.0	0.0
5298	5297	5296	5295	3	0.0	0.0	0.0	-0.0	-0.0	0.0
5325	5326	5315	5314	3	2.874	0.582	2.092	-5.548	-0.000	0.000
5325	5326	5315	5316	3	1.046	-1.046	0.000	-0.000	-0.000	0.000
5289	5288	5287	5286	3	16.736	-16.736	0.000	-0.000	-0.000	0.000
5325	5319	5316	5315	3	1.046	-1.046	0.000	-0.000	-0.000	0.000
5325	5319	5316	5317	3	9.079	0.000	-9.079	-0.000	-0.000	0.000
5394	5393	5392	5391	3	30.334	0.000	-30.334	-0.000	-0.000	0.000
5393	5401	5402	5390	3	30.334	0.000	-30.334	-0.000	-0.000	0.000
5393	5392	5391	5390	3	30.334	0.000	-30.334	-0.000	-0.000	0.000
5414	5413	5412	5411	3	21.738	2.408	-16.966	-7.180	-0.000	0.000
5410	5409	5408	5407	3	21.738	2.408	-16.966	-7.180	-0.000	0.000
5411	5410	5409	5408	3	21.738	2.408	-16.966	-7.180	-0.000	0.000
5412	5411	5410	5409	3	21.738	2.408	-16.966	-7.180	-0.000	0.000
5413	5412	5411	5410	3	21.738	2.408	-16.966	-7.180	-0.000	0.000
5409	5408	5407	5406	3	58.576	0.000	-58.576	-0.000	-0.000	0.000
5408	5407	5406	5405	3	16.027	-4.391	-14.029	2.393	-0.000	0.000
5407	5406	5405	5404	3	30.334	0.000	-30.334	-0.000	-0.000	0.000
5416	5415	5414	5413	3	58.576	0.000	-58.576	-0.000	-0.000	0.000
5401	5393	5394	5400	3	9.079	0.000	-9.079	-0.000	-0.000	0.000
5400	5394	5393	5392	3	9.079	0.000	-9.079	-0.000	-0.000	0.000
5401	5393	5394	5395	3	9.079	0.000	-9.079	-0.000	-0.000	0.000
5395	5394	5393	5392	3	9.079	0.000	-9.079	-0.000	-0.000	0.000
5400	5394	5395	5396	3	30.334	0.000	-30.334	-0.000	-0.000	0.000
5401	5393	5392	5391	3	30.334	0.000	-30.334	-0.000	-0.000	0.000
5399	5400	5394	5393	3	30.334	0.000	-30.334	-0.000	-0.000	0.000
5402	5401	5393	5394	3	30.334	0.000	-30.334	-0.000	-0.000	0.000
5396	5395	5394	5393	3	30.334	0.000	-30.334	-0.000	-0.000	0.000
5399	5400	5394	5395	3	30.334	0.000	-30.334	-0.000	-0.000	0.000
5402	5401	5393	5392	3	30.334	0.000	-30.334	-0.000	-0.000	0.000
5442	5406	5407	5408	3	16.027	-4.391	-14.029	2.393	-0.000	0.000
5397	5399	5400	5394	3	30.334	0.000	-30.334	-0.000	-0.000	0.000
5397	5396	5395	5394	3	30.334	0.000	-30.334	-0.000	-0.000	0.000
5443	5442	5406	5407	3	30.334	0.000	-30.334	-0.000	-0.000	0.000
5432	5427	5428	5429	3	30.334	0.000	-30.334	-0.000	-0.000	0.000
5443	5442	5406	5405	3	30.334	0.000	-30.334	-0.000	-0.000	0.000
5402	5390	5391	5392	3	30.334	0.000	-30.334	-0.000	-0.000	0.000
5442	5443	5403	5404	3	30.334	0.000	-30.334	-0.000	-0.000	0.000
5432	5431	5430	5429	3	30.334	0.000	-30.334	-0.000	-0.000	0.000
5431	5430	5429	5428	3	30.334	0.000	-30.334	-0.000	-0.000	0.000
5430	5429	5428	5427	3	30.334	0.000	-30.334	-0.000	-0.000	0.000
5406	5405	5404	5403	3	30.334	0.000	-30.334	-0.000	-0.000	0.000
5406	5442	5443	5403	3	30.334	0.000	-30.334	-0.000	-0.000	0.000
5443	5403	5404	5405	3	30.334	0.000	-30.334	-0.000	-0.000	0.000
5442	5406	5405	5404	3	30.334	0.000	-30.334	-0.000	-0.000	0.000
5431	5432	5427	5428	3	30.334	0.000	-30.334	-0.000	-0.000	0.000
5400	5399	5397	5396	3	30.334	0.000	-30.334	-0.000	-0.000	0.000
5401	5402	5390	5391	3	30.334	0.000	-30.334	-0.000	-0.000	0.000
5430	5431	5432	5427	3	30.334	0.000	-30.334	-0.000	-0.000	0.000
5399	5397	5396	5395	3	30.334	0.000	-30.334	-0.000	-0.000	0.000
5431	5432	5427	5426	3	30.334	0.000	-30.334	-0.000	-0.000	0.000
5429	5428	5427	5426	3	30.334	0.000	-30.334	-0.000	-0.000	0.000
5442	5443	5403	5386	3	30.334	0.000	-30.334	-0.000	-0.000	0.000
5405	5404	5403	5386	3	30.334	0.000	-30.334	-0.000	-0.000	0.000
5400	5399	5397	5398	3	0.0	0.0	0.0	-0.0	-0.0	0.0
5392	5391	5390	5389	3	30.334	0.000	-30.334	-0.000	-0.000	0.000
5401	5402	5390	5389	3	30.334	0.000	-30.334	-0.000	-0.000	0.000
5432	5427	5426	5415	3	0.000	0.000	0.000	-0.000	-0.000	0.000
5428	5427	5426	5415	3	0.000	0.000	0.000	-0.000	-0.000	0.000
5432	5427	5426	5425	3	0.000	0.000	0.000	-0.000	-0.000	0.000
5428	5427	5426	5425	3	0.000	0.000	0.000	-0.000	-0.000	0.000
5443	5403	5386	5387	3	5.184	35.932	-14.355	-26.761	-0.000	0.000
5404	5403	5386	5387	3	5.184	35.932	-14.355	-26.761	-0.000	0.000
5404	5403	5386	5385	3	5.184	35.932	-14.355	-26.761	-0.000	0.000
5443	5403	5386	5385	3	5.184	35.932	-14.355	-26.761	-0.000	0.000
5391	5390	5389	5388	3	12.552	0.000	-12.552	-0.000	-0.000	0.000
5402	5390	5389	5388	3	12.552	0.000	-12.552	-0.000	-0.000	0.000
5427	5426	5415	5414	3	6.322	-2.485	0.707	-4.544	-0.000	0.000
5427	5426	5415	5416	3	0.527	-6.397	-1.695	7.565	-0.000	0.000
5427	5426	5425	5419	3	1.715	2.845	1.046	-5.607	-0.000	0.000
5403	5386	5387	5388	3	1.789	3.492	0.536	-5.816	-0.000	0.000
5390	5389	5388	5387	3	1.715	2.845	1.046	-5.607	-0.000	0.000
5433	5426	5427	5428	3	0.000	0.000	0.000	-0.000	-0.000	0.000
5433	5426	5427	5432	3	0.000	0.000	0.000	-0.000	-0.000	0.000
5433	5426	5415	5414	3	6.322	-2.485	0.707	-4.544	-0.000	0.000
5433	5426	5415	5416	3	0.527	-6.397	-1.695	7.565	-0.000	0.000
5433	5426	5425	5419	3	1.715	2.845	1.046	-5.607	-0.000	0.000
5415	5414	5413	5412	3	21.738	2.408	-16.966	-7.180	-0.000	0.000
5420	5419	5416	5415	3	21.738	2.408	-16.966	-7.180	-0.000	0.000
5420	5419	5416	5417	3	-0.778	-2.335	0.000	3.113	-0.000	0.000
5441	5409	5408	5407	3	58.576	0.000	-58.576	-0.000	-0.000	0.000
5437	5411	5410	5409	3	58.576	0.000	-58.576	-0.000	-0.000	0.000
5441	5409	5410	5411	3	58.576	0.000	-58.576	-0.000	-0.000	0.000
5437	5411	5412	5413	3	58.576	0.000	-58.576	-0.000	-0.000	0.000
5426	5415	5414	5413	3	-0.778	-2.335	0.000	3.113	-0.000	0.000
5426	5415	5416	5419	3	58.576	0.000	-58.576	-0.000	-0.000	0.000
5426	5415	5416	5417	3	58.576	0.000	-58.576	-0.000	-0.000	0.000
5438	5441	5409	5408	3	0.527	-6.397	-1.695	7.565	-0.000	0.000
5438	5437	5411	5412	3	0.527	-6.397	-1.695	7.565	-0.000	0.000
5438	5437	5411	5410	3	0.527	-6.397	-1.695	7.565	-0.000	0.000
5438	5441	5409	5410	3	0.527	-6.397	-1.695	7.565	-0.000	0.000
5441	5438	5437	5411	3	2.301	-1.464	0.837	-1.674	-0.000	0.000
5440	5438	5441	5409	3	2.301	-1.464	0.837	-1.674	-0.000	0.000
5437	5438	5441	5409	3	2.301	-1.464	0.837	-1.674	-0.000	0.000
5439	5438	5441	5409	3	2.301	-1.464	0.837	-1.674	-0.000	0.000
5440	5438	5437	5411	3	2.301	-1.464	0.837	-1.674	-0.000	0.000
5439	5438	5437	5411	3	2.301	-1.464	0.837	-1.674	-0.000	0.000
5388	5387	5386	5385	3	1.789	3.492	0.536	-5.816	-0.000	0.000
5426	5425	5419	5416	3	30.334	0.000	-30.334	-0.000	-0.000	0.000
5426	5425	5419	5420	3	30.334	0.000	-30.334	-0.000	-0.000	0.000
5419	5416	5415	5414	3	58.576	0.000	-58.576	-0.000	-0.000	0.000
5419	5425	5426	5415	3	1.715	2.845	1.046	-5.607	-0.000	0.000
5417	5416	5415	5414	3	58.576	0.000	-58.576	-0.000	-0.000	0.000
5421	5420	5419	5416	3	58.576	0.000	-58.576	-0.000	-0.000	0.000
5423	5420	5419	5416	3	58.576	0.000	-58.576	-0.000	-0.000	0.000
5434	5433	5426	5427	3	0.000	0.000	0.000	-0.000	-0.000	0.000
5435	5433	5426	5427	3	0.000	0.000	0.000	-0.000	-0.000	0.000
5436	5433	5426	5427	3	0.000	0.000	0.000	-0.000	-0.000	0.000
5435	5433	5426	5415	3	0.000	0.000	0.000	-0.000	-0.000	0.000
5434	5433	5426	5415	3	0.000	0.000	0.000	-0.000	-0.000	0.000
5436	5433	5426	5415	3	0.000	0.000	0.000	-0.000	-0.000	0.000
5435	5433	5426	5425	3	1.130	3.389	0.000	-4.519	-0.000	0.000
5436	5433	5426	5425	3	1.130	3.389	0.000	-4.519	-0.000	0.000
5434	5433	5426	5425	3	1.130	3.389	0.000	-4.519	-0.000	0.000
5464	5410	5409	5408	3	58.576	0.000	-58.576	-0.000	-0.000	0.000
5464	5410	5411	5412	3	58.576	0.000	-58.576	-0.000	-0.000	0.000
5464	5410	5411	5437	3	58.576	0.000	-58.576	-0.000	-0.000	0.000
5464	5410	5409	5441	3	58.576	0.000	-58.576	-0.000	-0.000	0.000
5453	5395	5394	5393	3	30.334	0.000	-30.334	-0.000	-0.000	0.000
5452	5392	5393	5394	3	30.334	0.000	-30.334	-0.000	-0.000	0.000
5458	5401	5393	5394	3	30.334	0.000	-30.334	-0.000	-0.000	0.000
5457	5400	5394	5393	3	30.334	0.000	-30.334	-0.000	-0.000	0.000
5457	5400	5394	5395	3	30.334	0.000	-30.334	-0.000	-0.000	0.000
5453	5395	5394	5400	3	30.334	0.000	-30.334	-0.000	-0.000	0.000
5452	5392	5393	5401	3	30.334	0.000	-30.334	-0.000	-0.000	0.000
5458	5401	5393	5392	3	30.334	0.000	-30.334	-0.000	-0.000	0.000
5451	5391	5392	5393	3	30.334	0.000	-30.334	-0.000	-0.000	0.000
5459	5402	5401	5393	3	30.334	0.000	-30.334	-0.000	-0.000	0.000
5454	5396	5395	5394	3	30.334	0.000	-30.334	-0.000	-0.000	0.000
5456	5399	5400	5394	3	30.334	0.000	-30.334	-0.000	-0.000	0.000
5461	5405	5406	5407	3	30.334	0.000	-30.334	-0.000	-0.000	0.000
5483	5442	5406	5407	3	30.334	0.000	-30.334	-0.000	-0.000	0.000
5468	5428	5429	5430	3	30.334	0.000	-30.334	-0.000	-0.000	0.000
5456	5399	5397	5396	3	30.334	0.000	-30.334	-0.000	-0.000	0.000
5471	5431	5430	5429	3	30.334	0.000	-30.334	-0.000	-0.000	0.000
5483	5442	5443	5403	3	30.334	0.000	-30.334	-0.000	-0.000	0.000
5469	5429	5428	5427	3	30.334	0.000	-30.334	-0.000	-0.000	0.000
5484	5443	5442	5406	3	30.334	0.000	-30.334	-0.000	-0.000	0.000
5470	5430	5429	5428	3	30.334	0.000	-30.334	-0.000	-0.000	0.000
5459	5402	5390	5391	3	30.334	0.000	-30.334	-0.000	-0.000	0.000
5458	5401	5402	5390	3	30.334	0.000	-30.334	-0.000	-0.000	0.000
5483	5442	5406	5405	3	30.334	0.000	-30.334	-0.000	-0.000	0.000
5484	5443	5403	5404	3	30.334	0.000	-30.334	-0.000	-0.000	0.000
5471	5431	5432	5427	3	30.334	0.000	-30.334	-0.000	-0.000	0.000
5468	5428	5427	5432	3	30.334	0.000	-30.334	-0.000	-0.000	0.000
5453	5395	5396	5397	3	30.334	0.000	-30.334	-0.000	-0.000	0.000
5454	5396	5397	5399	3	30.334	0.000	-30.334	-0.000	-0.000	0.000
5451	5391	5390	5402	3	30.334	0.000	-30.334	-0.000	-0.000	0.000
5460	5404	5403	5443	3	30.334	0.000	-30.334	-0.000	-0.000	0.000
5460	5404	5405	5406	3	30.334	0.000	-30.334	-0.000	-0.000	0.000
5457	5400	5399	5397	3	30.334	0.000	-30.334	-0.000	-0.000	0.000
5461	5405	5406	5442	3	30.334	0.000	-30.334	-0.000	-0.000	0.000
5470	5430	5431	5432	3	30.334	0.000	-30.334	-0.000	-0.000	0.000
5472	5432	5431	5430	3	30.334	0.000	-30.334	-0.000	-0.000	0.000
5469	5429	5430	5431	3	30.334	0.000	-30.334	-0.000	-0.000	0.000
5472	5432	5427	5428	3	30.334	0.000	-30.334	-0.000	-0.000	0.000
5452	5392	5391	5390	3	30.334	0.000	-30.334	-0.000	-0.000	0.000
5461	5405	5404	5403	3	30.334	0.000	-30.334	-0.000	-0.000	0.000
5472	5432	5427	5426	3	30.334	0.000	-30.334	-0.000	-0.000	0.000
5468	5428	5427	5426	3	30.334	0.000	-30.334	-0.000	-0.000	0.000
5461	5405	5404	5460	3	30.334	0.000	-30.334	-0.000	-0.000	0.000
5484	5443	5442	5483	3	30.334	0.000	-30.334	-0.000	-0.000	0.000
5470	5430	5429	5469	3	30.334	0.000	-30.334	-0.000	-0.000	0.000
5454	5396	5395	5453	3	30.334	0.000	-30.334	-0.000	-0.000	0.000
5459	5402	5401	5458	3	30.334	0.000	-30.334	-0.000	-0.000	0.000
5457	5400	5399	5456	3	30.334	0.000	-30.334	-0.000	-0.000	0.000
5469	5429	5428	5468	3	30.334	0.000	-30.334	-0.000	-0.000	0.000
5452	5392	5391	5451	3	30.334	0.000	-30.334	-0.000	-0.000	0.000
5471	5431	5430	5470	3	30.334	0.000	-30.334	-0.000	-0.000	0.000
5472	5432	5431	5471	3	30.334	0.000	-30.334	-0.000	-0.000	0.000
5484	5443	5403	5386	3	30.334	0.000	-30.334	-0.000	-0.000	0.000
5460	5404	5403	5386	3	30.334	0.000	-30.334	-0.000	-0.000	0.000
5454	5396	5397	5398	3	0.0	0.0	0.0	-0.0	-0.0	0.0
5456	5399	5397	5398	3	0.0	0.0	0.0	-0.0	-0.0	0.0
5451	5391	5390	5389	3	30.334	0.000	-30.334	-0.000	-0.000	0.000
5459	5402	5390	5389	3	30.334	0.000	-30.334	-0.000	-0.000	0.000
5465	5412	5411	5410	3	58.576	0.000	-58.576	-0.000	-0.000	0.000
5465	5412	5413	5414	3	58.576	0.000	-58.576	-0.000	-0.000	0.000
5467	5414	5413	5412	3	58.576	0.000	-58.576	-0.000	-0.000	0.000
5466	5413	5412	5411	3	58.576	0.000	-58.576	-0.000	-0.000	0.000
5463	5408	5409	5410	3	58.576	0.000	-58.576	-0.000	-0.000	0.000
5462	5407	5408	5409	3	58.576	0.000	-58.576	-0.000	-0.000	0.000
5463	5408	5407	5406	3	58.576	0.000	-58.576	-0.000	-0.000	0.000
5466	5413	5414	5415	3	58.576	0.000	-58.576	-0.000	-0.000	0.000
5465	5412	5411	5437	3	58.576	0.000	-58.576	-0.000	-0.000	0.000
5463	5408	5409	5441	3	58.576	0.000	-58.576	-0.000	-0.000	0.000
5463	5408	5407	5462	3	58.576	0.000	-58.576	-0.000	-0.000	0.000
5466	5413	5412	5465	3	58.576	0.000	-58.576	-0.000	-0.000	0.000
5467	5414	5413	5466	3	58.576	0.000	-58.576	-0.000	-0.000	0.000
5462	5407	5406	5442	3	-0.778	-2.335	0.000	3.113	-0.000	0.000
5462	5407	5406	5405	3	-0.778	-2.335	0.000	3.113	-0.000	0.000
5467	5414	5415	5416	3	58.576	0.000	-58.576	-0.000	-0.000	0.000
5467	5414	5415	5426	3	58.576	0.000	-58.576	-0.000	-0.000	0.000
5481	5441	5409	5408	3	-0.778	-2.335	0.000	3.113	-0.000	0.000
5481	5441	5409	5410	3	-0.778	-2.335	0.000	3.113	-0.000	0.000
5482	5441	5409	5408	3	-0.778	-2.335	0.000	3.113	-0.000	0.000
5474	5437	5411	5412	3	-0.778	-2.335	0.000	3.113	-0.000	0.000
5482	5441	5409	5410	3	-0.778	-2.335	0.000	3.113	-0.000	0.000
5473	5437	5411	5410	3	-0.778	-2.335	0.000	3.113	-0.000	0.000
5474	5437	5411	5410	3	-0.778	-2.335	0.000	3.113	-0.000	0.000
5473	5437	5411	5412	3	-0.778	-2.335	0.000	3.113	-0.000	0.000
5476	5439	5438	5441	3	0.628	1.883	0.000	-2.510	-0.000	0.000
5475	5439	5438	5440	3	0.628	1.883	0.000	-2.510	-0.000	0.000
5475	5439	5438	5437	3	0.628	1.883	0.000	-2.510	-0.000	0.000
5477	5439	5438	5440	3	0.628	1.883	0.000	-2.510	-0.000	0.000
5479	5440	5438	5437	3	0.628	1.883	0.000	-2.510	-0.000	0.000
5478	5440	5438	5437	3	0.628	1.883	0.000	-2.510	-0.000	0.000
5477	5439	5438	5437	3	0.628	1.883	0.000	-2.510	-0.000	0.000
5479	5440	5438	5439	3	0.628	1.883	0.000	-2.510	-0.000	0.000
5476	5439	5438	5437	3	0.628	1.883	0.000	-2.510	-0.000	0.000
5481	5441	5438	5437	3	0.628	1.883	0.000	-2.510	-0.000	0.000
5481	5441	5438	5439	3	0.628	1.883	0.000	-2.510	-0.000	0.000
5474	5437	5438	5439	3	0.628	1.883	0.000	-2.510	-0.000	0.000
5477	5439	5438	5441	3	0.628	1.883	0.000	-2.510	-0.000	0.000
5474	5437	5438	5440	3	0.628	1.883	0.000	-2.510	-0.000	0.000
5482	5441	5438	5439	3	0.628	1.883	0.000	-2.510	-0.000	0.000
5478	5440	5438	5441	3	0.628	1.883	0.000	-2.510	-0.000	0.000
5479	5440	5438	5441	3	0.628	1.883	0.000	-2.510	-0.000	0.000
5480	5440	5438	5437	3	0.628	1.883	0.000	-2.510	-0.000	0.000
5473	5437	5438	5440	3	0.628	1.883	0.000	-2.510	-0.000	0.000
5473	5437	5438	5439	3	0.628	1.883	0.000	-2.510	-0.000	0.000
5478	5440	5438	5439	3	0.628	1.883	0.000	-2.510	-0.000	0.000
5474	5437	5438	5441	3	0.628	1.883	0.000	-2.510	-0.000	0.000
5482	5441	5438	5440	3	0.628	1.883	0.000	-2.510	-0.000	0.000
5476	5439	5438	5440	3	0.628	1.883	0.000	-2.510	-0.000	0.000
5475	5439	5438	5441	3	0.628	1.883	0.000	-2.510	-0.000	0.000
5482	5441	5438	5437	3	0.628	1.883	0.000	-2.510	-0.000	0.000
5473	5437	5438	5441	3	0.628	1.883	0.000	-2.510	-0.000	0.000
5480	5440	5438	5439	3	0.628	1.883	0.000	-2.510	-0.000	0.000
5481	5441	5438	5440	3	0.628	1.883	0.000	-2.510	-0.000	0.000
5480	5440	5438	5441	3	0.628	1.883	0.000	-2.510	-0.000	0.000
5449	5388	5387	5448	3	0.628	1.883	0.000	-2.510	-0.000	0.000
5450	5388	5387	5447	3	0.628	1.883	0.000	-2.510	-0.000	0.000
5449	5388	5387	5447	3	0.628	1.883	0.000	-2.510	-0.000	0.000
5450	5388	5387	5448	3	0.628	1.883	0.000	-2.510	-0.000	0.000
5450	5388	5387	5386	3	-4.096	5.088	2.966	-3.958	-0.000	0.000
5449	5388	5387	5386	3	-4.096	5.088	2.966	-3.958	-0.000	0.000
5448	5387	5388	5389	3	0.979	2.937	0.000	-3.916	-0.000	0.000
5447	5387	5388	5389	3	0.979	2.937	0.000	-3.916	-0.000	0.000
5448	5387	5386	5403	3	1.172	3.515	0.000	-4.686	-0.000	0.000
5444	5385	5386	5403	3	1.172	3.515	0.000	-4.686	-0.000	0.000
5447	5387	5386	5403	3	1.172	3.515	0.000	-4.686	-0.000	0.000
5445	5385	5386	5403	3	1.172	3.515	0.000	-4.686	-0.000	0.000
5446	5385	5386	5403	3	1.172	3.515	0.000	-4.686	-0.000	0.000
5447	5387	5386	5385	3	1.172	3.515	0.000	-4.686	-0.000	0.000
5445	5385	5386	5387	3	1.172	3.515	0.000	-4.686	-0.000	0.000
5448	5387	5386	5385	3	1.172	3.515	0.000	-4.686	-0.000	0.000
5446	5385	5386	5387	3	1.172	3.515	0.000	-4.686	-0.000	0.000
5444	5385	5386	5387	3	1.172	3.515	0.000	-4.686	-0.000	0.000
5449	5388	5389	5390	3	1.590	4.770	0.000	-6.360	-0.000	0.000
5450	5388	5389	5390	3	1.590	4.770	0.000	-6.360	-0.000	0.000
5455	5398	5397	5399	3	0.0	0.0	0.0	-0.0	-0.0	0.0
5455	5398	5397	5396	3	0.0	0.0	0.0	-0.0	-0.0	0.0
5398	5397	5396	5395	3	0.0	0.0	0.0	-0.0	-0.0	0.0
5425	5426	5415	5414	3	2.874	0.582	2.092	-5.548	-0.000	0.000
5425	5426	5415	5416	3	1.046	-1.046	0.000	-0.000	-0.000	0.000
5389	5388	5387	5386	3	16.736	-16.736	0.000	-0.000	-0.000	0.000
5425	5419	5416	5415	3	1.046	-1.046	0.000	-0.000	-0.000	0.000
5425	5419	5416	5417	3	9.079	0.000	-9.079	-0.000	-0.000	0.000
5494	5493	5492	5491	3	30.334	0.000	-30.334	-0.000	-0.000	0.000
5493	5501	5502	5490	3	30.334	0.000	-30.334	-0.000	-0.000	0.000
5493	5492	5491	5490	3	30.334	0.000	-30.334	-0.000	-0.000	0.000
5514	5513	5512	5511	3	21.738	2.408	-16.966	-7.180	-0.000	0.000
5510	5509	5508	5507	3	21.738	2.408	-16.966	-7.180	-0.000	0.000
5511	5510	5509	5508	3	21.738	2.408	-16.966	-7.180	-0.000	0.000
5512	5511	5510	5509	3	21.738	2.408	-16.966	-7.180	-0.000	0.000
5513	5512	5511	5510	3	21.738	2.408	-16.966	-7.180	-0.000	0.000
5509	5508	5507	5506	3	58.576	0.000	-58.576	-0.000	-0.000	0.000
5508	5507	5506	5505	3	16.027	-4.391	-14.029	2.393	-0.000	0.000
5507	5506	5505	5504	3	30.334	0.000	-30.334	-0.000	-0.000	0.000
5516	5515	5514	5513	3	58.576	0.000	-58.576	-0.000	-0.000	0.000
5501	5493	5494	5500	3	9.079	0.000	-9.079	-0.000	-0.000	0.000
5500	5494	5493	5492	3	9.079	0.000	-9.079	-0.000	-0.000	0.000
5501	5493	5494	5495	3	9.079	0.000	-9.079	-0.000	-0.000	0.000
5495	5494	5493	5492	3	9.079	0.000	-9.079	-0.000	-0.000	0.000
5500	5494	5495	5496	3	30.334	0.000	-30.334	-0.000	-0.000	0.000
5501	5493	5492	5491	3	30.334	0.000	-30.334	-0.000	-0.000	0.000
5499	5500	5494	5493	3	30.334	0.000	-30.334	-0.000	-0.000	0.000
5502	5501	5493	5494	3	30.334	0.000	-30.334	-0.000	-0.000	0.000
5496	5495	5494	5493	3	30.334	0.000	-30.334	-0.000	-0.000	0.000
5499	5500	5494	5495	3	30.334	0.000	-30.334	-0.000	-0.000	0.000
5502	5501	5493	5492	3	30.334	0.000	-30.334	-0.000	-0.000	0.000
5542	5506	5507	5508	3	16.027	-4.391	-14.029	2.393	-0.000	0.000
5497	5499	5500	5494	3	30.334	0.000	-30.334	-0.000	-0.000	0.000
5497	5496	5495	5494	3	30.334	0.000	-30.334	-0.000	-0.000	0.000
5543	5542	5506	5507	3	30.334	0.000	-30.334	-0.000	-0.000	0.000
5532	5527	5528	5529	3	30.334	0.000	-30.334	-0.000	-0.000	0.000
5543	5542	5506	5505	3	30.334	0.000	-30.334	-0.000	-0.000	0.000
5502	5490	5491	5492	3	30.334	0.000	-30.334	-0.000	-0.000	0.000
5542	5543	5503	5504	3	30.334	0.000	-30.334	-0.000	-0.000	0.000
5532	5531	5530	5529	3	30.334	0.000	-30.334	-0.000	-0.000	0.000
5531	5530	5529	5528	3	30.334	0.000	-30.334	-0.000	-0.000	0.000
5530	5529	5528	5527	3	30.334	0.000	-30.334	-0.000	-0.000	0.000
5506	5505	5504	5503	3	30.334	0.000	-30.334	-0.000	-0.000	0.000
5506	5542	5543	5503	3	30.334	0.000	-30.334	-0.000	-0.000	0.000
5543	5503	5504	5505	3	30.334	0.000	-30.334	-0.000	-0.000	0.000
5542	5506	5505	5504	3	30.334	0.000	-30.334	-0.000	-0.000	0.000
5531	5532	5527	5528	3	30.334	0.000	-30.334	-0.000	-0.000	0.000
5500	5499	5497	5496	3	30.334	0.000	-30.334	-0.000	-0.000	0.000
5501	5502	5490	5491	3	30.334	0.000	-30.334	-0.000	-0.000	0.000
5530	5531	5532	5527	3	30.334	0.000	-30.334	-0.000	-0.000	0.000
5499	5497	5496	5495	3	30.334	0.000	-30.334	-0.000	-0.000	0.000
5531	5532	5527	5526	3	30.334	0.000	-30.334	-0.000	-0.000	0.000
5529	5528	5527	5526	3	30.334	0.000	-30.334	-0.000	-0.000	0.000
5542	5543	5503	5486	3	30.334	0.000	-30.334	-0.000	-0.000	0.000
5505	5504	5503	5486	3	30.334	0.000	-30.334	-0.000	-0.000	0.000
5500	5499	5497	5498	3	0.0	0.0	0.0	-0.0	-0.0	0.0
5492	5491	5490	5489	3	30.334	0.000	-30.334	-0.000	-0.000	0.000
5501	5502	5490	5489	3	30.334	0.000	-30.334	-0.000	-0.000	0.000
5532	5527	5526	5515	3	0.000	0.000	0.000	-0.000	-0.000	0.000
5528	5527	5526	5515	3	0.000	0.000	0.000	-0.000	-0.000	0.000
5532	5527	5526	5525	3	0.000	0.000	0.000	-0.000	-0.000	0.000
5528	5527	5526	5525	3	0.000	0.000	0.000	-0.000	-0.000	0.000
5543	5503	5486	5487	3	5.184	35.932	-14.355	-26.761	-0.000	0.000
5504	5503	5486	5487	3	5.184	35.932	-14.355	-26.761	-0.000	0.000
5504	5503	5486	5485	3	5.184	35.932	-14.355	-26.761	-0.000	0.000
5543	5503	5486	5485	3	5.184	35.932	-14.355	-26.761	-0.000	0.000
5491	5490	5489	5488	3	12.552	0.000	-12.552	-0.000	-0.000	0.000
5502	5490	5489	5488	3	12.552	0.000	-12.552	-0.000	-0.000	0.000
5527	5526	5515	5514	3	6.322	-2.485	0.707	-4.544	-0.000	0.000
5527	5526	5515	5516	3	0.527	-6.397	-1.695	7.565	-0.000	0.000
5527	5526	5525	5519	3	1.715	2.845	1.046	-5.607	-0.000	0.000
5503	5486	5487	5488	3	1.789	3.492	0.536	-5.816	-0.000	0.000
5490	5489	5488	5487	3	1.715	2.845	1.046	-5.607	-0.000	0.000
5533	5526	5527	5528	3	0.000	0.000	0.000	-0.000	-0.000	0.000
5533	5526	5527	5532	3	0.000	0.000	0.000	-0.000	-0.000	0.000
5533	5526	5515	5514	3	6.322	-2.485	0.707	-4.544	-0.000	0.000
5533	5526	5515	5516	3	0.527	-6.397	-1.695	7.565	-0.000	0.000
5533	5526	5525	5519	3	1.715	2.845	1.046	-5.607	-0.000	0.000
5515	5514	5513	5512	3	21.738	2.408	-16.966	-7.180	-0.000	0.000
5520	5519	5516	5515	3	21.738	2.408	-16.966	-7.180	-0.000	0.000
5520	5519	5516	5517	3	-0.778	-2.335	0.000	3.113	-0.000	0.000
5541	5509	5508	5507	3	58.576	0.000	-58.576	-0.000	-0.000	0.000
5537	5511	5510	5509	3	58.576	0.000	-58.576	-0.000	-0.000	0.000
5541	5509	5510	5511	3	58.576	0.000	-58.576	-0.000	-0.000	0.000
5537	5511	5512	5513	3	58.576	0.000	-58.576	-0.000	-0.000	0.000
5526	5515	5514	5513	3	-0.778	-2.335	0.000	3.113	-0.000	0.000
5526	5515	5516	5519	3	58.576	0.000	-58.576	-0.000	-0.000	0.000
5526	5515	5516	5517	3	58.576	0.000	-58.576	-0.000	-0.000	0.000
5538	5541	5509	5508	3	0.527	-6.397	-1.695	7.565	-0.000	0.000
5538	5537	5511	5512	3	0.527	-6.397	-1.695	7.565	-0.000	0.000
5538	5537	5511	5510	3	0.527	-6.397	-1.695	7.565	-0.000	0.000
5538	5541	5509	5510	3	0.527	-6.397	-1.695	7.565	-0.000	0.000
5541	5538	5537	5511	3	2.301	-1.464	0.837	-1.674	-0.000	0.000
5540	5538	5541	5509	3	2.301	-1.464	0.837	-1.674	-0.000	0.000
5537	5538	5541	5509	3	2.301	-1.464	0.837	-1.674	-0.000	0.000
5539	5538	5541	5509	3	2.301	-1.464	0.837	-1.674	-0.000	0.000
5540	5538	5537	5511	3	2.301	-1.464	0.837	-1.674	-0.000	0.000
5539	5538	5537	5511	3	2.301	-1.464	0.837	-1.674	-0.000	0.000
5488	5487	5486	5485	3	1.789	3.492	0.536	-5.816	-0.000	0.000
5526	5525	5519	5516	3	30.334	0.000	-30.334	-0.000	-0.000	0.000
5526	5525	5519	5520	3	30.334	0.000	-30.334	-0.000	-0.000	0.000
5519	5516	5515	5514	3	58.576	0.000	-58.576	-0.000	-0.000	0.000
5519	5525	5526	5515	3	1.715	2.845	1.046	-5.607	-0.000	0.000
5517	5516	5515	5514	3	58.576	0.000	-58.576	-0.000	-0.000	0.000
5521	5520	5519	5516	3	58.576	0.000	-58.576	-0.000	-0.000	0.000
5523	5520	5519	5516	3	58.576	0.000	-58.576	-0.000	-0.000	0.000
5534	5533	5526	5527	3	0.000	0.000	0.000	-0.000	-0.000	0.000
5535	5533	5526	5527	3	0.000	0.000	0.000	-0.000	-0.000	0.000
5536	5533	5526	5527	3	0.000	0.000	0.000	-0.000	-0.000	0.000
5535	5533	5526	5515	3	0.000	0.000	0.000	-0.000	-0.000	0.000
5534	5533	5526	5515	3	0.000	0.000	0.000	-0.000	-0.000	0.000
5536	5533	5526	5515	3	0.000	0.000	0.000	-0.000	-0.000	0.000
5535	5533	5526	5525	3	1.130	3.389	0.000	-4.519	-0.000	0.000
5536	5533	5526	5525	3	1.130	3.389	0.000	-4.519	-0.000	0.000
5534	5533	5526	5525	3	1.130	3.389	0.000	-4.519	-0.000	0.000
5564	5510	5509	5508	3	58.576	0.000	-58.576	-0.000	-0.000	0.000
5564	5510	5511	5512	3	58.576	0.000	-58.576	-0.000	-0.000	0.000
5564	5510	5511	5537	3	58.576	0.000	-58.576	-0.000	-0.000	0.000
5564	5510	5509	5541	3	58.576	0.000	-58.576	-0.000	-0.000	0.000
5553	5495	5494	5493	3	30.334	0.000	-30.334	-0.000	-0.000	0.000
5552	5492	5493	5494	3	30.334	0.000	-30.334	-0.000	-0.000	0.000
5558	5501	5493	5494	3	30.334	0.000	-30.334	-0.000	-0.000	0.000
5557	5500	5494	5493	3	30.334	0.000	-30.334	-0.000	-0.000	0.000
5557	5500	5494	5495	3	30.334	0.000	-30.334	-0.000	-0.000	0.000
5553	5495	5494	5500	3	30.334	0.000	-30.334	-0.000	-0.000	0.000
5552	5492	5493	5501	3	30.334	0.000	-30.334	-0.000	-0.000	0.000
5558	5501	5493	5492	3	30.334	0.000	-30.334	-0.000	-0.000	0.000
5551	5491	5492	5493	3	30.334	0.000	-30.334	-0.000	-0.000	0.000
5559	5502	5501	5493	3	30.334	0.000	-30.334	-0.000	-0.000	0.000
5554	5496	5495	5494	3	30.334	0.000	-30.334	-0.000	-0.000	0.000
5556	5499	5500	5494	3	30.334	0.000	-30.334	-0.000	-0.000	0.000
5561	5505	5506	5507	3	30.334	0.000	-30.334	-0.000	-0.000	0.000
5583	5542	5506	5507	3	30.334	0.000	-30.334	-0.000	-0.000	0.000
5568	5528	5529	5530	3	30.334	0.000	-30.334	-0.000	-0.000	0.000
5556	5499	5497	5496	3	30.334	0.000	-30.334	-0.000	-0.000	0.000
5571	5531	5530	5529	3	30.334	0.000	-30.334	-0.000	-0.000	0.000
5583	5542	5543	5503	3	30.334	0.000	-30.334	-0.000	-0.000	0.000
5569	5529	5528	5527	3	30.334	0.000	-30.334	-0.000	-0.000	0.000
5584	5543	5542	5506	3	30.334	0.000	-30.334	-0.000	-0.000	0.000
5570	5530	5529	5528	3	30.334	0.000	-30.334	-0.000	-0.000	0.000
5559	5502	5490	5491	3	30.334	0.000	-30.334	-0.000	-0.000	0.000
5558	5501	5502	5490	3	30.334	0.000	-30.334	-0.000	-0.000	0.000
5583	5542	5506	5505	3	30.334	0.000	-30.334	-0.000	-0.000	0.000
5584	5543	5503	5504	3	30.334	0.000	-30.334	-0.000	-0.000	0.000
5571	5531	5532	5527	3	30.334	0.000	-30.334	-0.000	-0.000	0.000
5568	5528	5527	5532	3	30.334	0.000	-30.334	-0.000	-0.000	0.000
5553	5495	5496	5497	3	30.334	0.000	-30.334	-0.000	-0.000	0.000
5554	5496	5497	5499	3	30.334	0.000	-30.334	-0.000	-0.000	0.000
5551	5491	5490	5502	3	30.334	0.000	-30.334	-0.000	-0.000	0.000
5560	5504	5503	5543	3	30.334	0.000	-30.334	-0.000	-0.000	0.000
5560	5504	5505	5506	3	30.334	0.000	-30.334	-0.000	-0.000	0.000
5557	5500	5499	5497	3	30.334	0.000	-30.334	-0.000	-0.000	0.000
5561	5505	5506	5542	3	30.334	0.000	-30.334	-0.000	-0.000	0.000
5570	5530	5531	5532	3	30.334	0.000	-30.334	-0.000	-0.000	0.000
5572	5532	5531	5530	3	30.334	0.000	-30.334	-0.000	-0.000	0.000
5569	5529	5530	5531	3	30.334	0.000	-30.334	-0.000	-0.000	0.000
5572	5532	5527	5528	3	30.334	0.000	-30.334	-0.000	-0.000	0.000
5552	5492	5491	5490	3	30.334	0.000	-30.334	-0.000	-0.000	0.000
5561	5505	5504	5503	3	30.334	0.000	-30.334	-0.000	-0.000	0.000
5572	5532	5527	5526	3	30.334	0.000	-30.334	-0.000	-0.000	0.000
5568	5528	5527	5526	3	30.334	0.000	-30.334	-0.000	-0.000	0.000
5561	5505	5504	5560	3	30.334	0.000	-30.334	-0.000	-0.000	0.000
5584	5543	5542	5583	3	30.334	0.000	-30.334	-0.000	-0.000	0.000
5570	5530	5529	5569	3	30.334	0.000	-30.334	-0.000	-0.000	0.000
5554	5496	5495	5553	3	30.334	0.000	-30.334	-0.000	-0.000	0.000
5559	5502	5501	5558	3	30.334	0.000	-30.334	-0.000	-0.000	0.000
5557	5500	5499	5556	3	30.334	0.000	-30.334	-0.000	-0.000	0.000
5569	5529	5528	5568	3	30.334	0.000	-30.334	-0.000	-0.000	0.000
5552	5492	5491	5551	3	30.334	0.000	-30.334	-0.000	-0.000	0.000
5571	5531	5530	5570	3	30.334	0.000	-30.334	-0.000	-0.000	0.000
5572	5532	5531	5571	3	30.334	0.000	-30.334	-0.000	-0.000	0.000
5584	5543	5503	5486	3	30.334	0.000	-30.334	-0.000	-0.000	0.000
5560	5504	5503	5486	3	30.334	0.000	-30.334	-0.000	-0.000	0.000
5554	5496	5497	5498	3	0.0	0.0	0.0	-0.0	-0.0	0.0
5556	5499	5497	5498	3	0.0	0.0	0.0	-0.0	-0.0	0.0
5551	5491	5490	5489	3	30.334	0.000	-30.334	-0.000	-0.000	0.000
5559	5502	5490	5489	3	30.334	0.000	-30.334	-0.000	-0.000	0.000
5565	5512	5511	5510	3	58.576	0.000	-58.576	-0.000	-0.000	0.000
5565	5512	5513	5514	3	58.576	0.000	-58.576	-0.000	-0.000	0.000
5567	5514	5513	5512	3	58.576	0.000	-58.576	-0.000	-0.000	0.000
5566	5513	5512	5511	3	58.576	0.000	-58.576	-0.000	-0.000	0.000
5563	5508	5509	5510	3	58.576	0.000	-58.576	-0.000	-0.000	0.000
5562	5507	5508	5509	3	58.576	0.000	-58.576	-0.000	-0.000	0.000
5563	5508	5507	5506	3	58.576	0.000	-58.576	-0.000	-0.000	0.000
5566	5513	5514	5515	3	58.576	0.000	-58.576	-0.000	-0.000	0.000
5565	5512	5511	5537	3	58.576	0.000	-58.576	-0.000	-0.000	0.000
5563	5508	5509	5541	3	58.576	0.000	-58.576	-0.000	-0.000	0.000
5563	5508	5507	5562	3	58.576	0.000	-58.576	-0.000	-0.000	0.000
5566	5513	5512	5565	3	58.576	0.000	-58.576	-0.000	-0.000	0.000
5567	5514	5513	5566	3	58.576	0.000	-58.576	-0.000	-0.000	0.000
5562	5507	5506	5542	3	-0.778	-2.335	0.000	3.113	-0.000	0.000
5562	5507	5506	5505	3	-0.778	-2.335	0.000	3.113	-0.000	0.000
5567	5514	5515	5516	3	58.576	0.000	-58.576	-0.000	-0.000	0.000
5567	5514	5515	5526	3	58.576	0.000	-58.576	-0.000	-0.000	0.000
5581	5541	5509	5508	3	-0.778	-2.335	0.000	3.113	-0.000	0.000
5581	5541	5509	5510	3	-0.778	-2.335	0.000	3.113	-0.000	0.000
5582	5541	5509	5508	3	-0.778	-2.335	0.000	3.113	-0.000	0.000
5574	5537	5511	5512	3	-0.778	-2.335	0.000	3.113	-0.000	0.000
5582	5541	5509	5510	3	-0.778	-2.335	0.000	3.113	-0.000	0.000
5573	5537	5511	5510	3	-0.778	-2.335	0.000	3.113	-0.000	0.000
5574	5537	5511	5510	3	-0.778	-2.335	0.000	3.113	-0.000	0.000
5573	5537	5511	5512	3	-0.778	-2.335	0.000	3.113	-0.000	0.000
5576	5539	5538	5541	3	0.628	1.883	0.000	-2.510	-0.000	0.000
5575	5539	5538	5540	3	0.628	1.883	0.000	-2.510	-0.000	0.000
5575	5539	5538	5537	3	0.628	1.883	0.000	-2.510	-0.000	0.000
5577	5539	5538	5540	3	0.628	1.883	0.000	-2.510	-0.000	0.000
5579	5540	5538	5537	3	0.628	1.883	0.000	-2.510	-0.000	0.000
5578	5540	5538	5537	3	0.628	1.883	0.000	-2.510	-0.000	0.000
5577	5539	5538	5537	3	0.628	1.883	0.000	-2.510	-0.000	0.000
5579	5540	5538	5539	3	0.628	1.883	0.000	-2.510	-0.000	0.000
5576	5539	5538	5537	3	0.628	1.883	0.000	-2.510	-0.000	0.000
5581	5541	5538	5537	3	0.628	1.883	0.000	-2.510	-0.000	0.000
5581	5541	5538	5539	3	0.628	1.883	0.000	-2.510	-0.000	0.000
5574	5537	5538	5539	3	0.628	1.883	0.000	-2.510	-0.000	0.000
5577	5539	5538	5541	3	0.628	1.883	0.000	-2.510	-0.000	0.000
5574	5537	5538	5540	3	0.628	1.883	0.000	-2.510	-0.000	0.000
5582	5541	5538	5539	3	0.628	1.883	0.000	-2.510	-0.000	0.000
5578	5540	5538	5541	3	0.628	1.883	0.000	-2.510	-0.000	0.000
5579	5540	5538	5541	3	0.628	1.883	0.000	-2.510	-0.000	0.000
5580	5540	5538	5537	3	0.628	1.883	0.000	-2.510	-0.000	0.000
5573	5537	5538	5540	3	0.628	1.883	0.000	-2.510	-0.000	0.000
5573	5537	5538	5539	3	0.628	1.883	0.000	-2.510	-0.000	0.000
5578	5540	5538	5539	3	0.628	1.883	0.000	-2.510	-0.000	0.000
5574	5537	5538	5541	3	0.628	1.883	0.000	-2.510	-0.000	0.000
5582	5541	5538	5540	3	0.628	1.883	0.000	-2.510	-0.000	0.000
5576	5539	5538	5540	3	0.628	1.883	0.000	-2.510	-0.000	0.000
5575	5539	5538	5541	3	0.628	1.883	0.000	-2.510	-0.000	0.000
5582	5541	5538	5537	3	0.628	1.883	0.000	-2.510	-0.000	0.000
5573	5537	5538	5541	3	0.628	1.883	0.000	-2.510	-0.000	0.000
5580	5540	5538	5539	3	0.628	1.883	0.000	-2.510	-0.000	0.000
5581	5541	5538	5540	3	0.628	1.883	0.000	-2.510	-0.000	0.000
5580	5540	5538	5541	3	0.628	1.883	0.000	-2.510	-0.000	0.000
5549	5488	5487	5548	3	0.628	1.883	0.000	-2.510	-0.000	0.000
5550	5488	5487	5547	3	0.628	1.883	0.000	-2.510	-0.000	0.000
5549	5488	5487	5547	3	0.628	1.883	0.000	-2.510	-0.000	0.000
5550	5488	5487	5548	3	0.628	1.883	0.000	-2.510	-0.000	0.000
5550	5488	5487	5486	3	-4.096	5.088	2.966	-3.958	-0.000	0.000
5549	5488	5487	5486	3	-4.096	5.088	2.966	-3.958	-0.000	0.000
5548	5487	5488	5489	3	0.979	2.937	0.000	-3.916	-0.000	0.000
5547	5487	5488	5489	3	0.979	2.937	0.000	-3.916	-0.000	0.000
5548	5487	5486	5503	3	1.172	3.515	0.000	-4.686	-0.000	0.000
5544	5485	5486	5503	3	1.172	3.515	0.000	-4.686	-0.000	0.000
5547	5487	5486	5503	3	1.172	3.515	0.000	-4.686	-0.000	0.000
5545	5485	5486	5503	3	1.172	3.515	0.000	-4.686	-0.000	0.000
5546	5485	5486	5503	3	1.172	3.515	0.000	-4.686	-0.000	0.000
5547	5487	5486	5485	3	1.172	3.515	0.000	-4.686	-0.000	0.000
5545	5485	5486	5487	3	1.172	3.515	0.000	-4.686	-0.000	0.000
5548	5487	5486	5485	3	1.172	3.515	0.000	-4.686	-0.000	0.000
5546	5485	5486	5487	3	1.172	3.515	0.000	-4.686	-0.000	0.000
5544	5485	5486	5487	3	1.172	3.515	0.000	-4.686	-0.000	0.000
5549	5488	5489	5490	3	1.590	4.770	0.000	-6.360	-0.000	0.000
5550	5488	5489	5490	3	1.590	4.770	0.000	-6.360	-0.000	0.000
5555	5498	5497	5499	3	0.0	0.0	0.0	-0.0	-0.0	0.0
5555	5498	5497	5496	3	0.0	0.0	0.0	-0.0	-0.0	0.0
5498	5497	5496	5495	3	0.0	0.0	0.0	-0.0	-0.0	0.0
5525	5526	5515	5514	3	2.874	0.582	2.092	-5.548	-0.000	0.000
5525	5526	5515	5516	3	1.046	-1.046	0.000	-0.000	-0.000	0.000
5489	5488	5487	5486	3	16.736	-16.736	0.000	-0.000	-0.000	0.000
5525	5519	5516	5515	3	1.046	-1.046	0.000	-0.000	-0.000	0.000
5525	5519	5516	5517	3	9.079	0.000	-9.079	-0.000	-0.000	0.000
5594	5593	5592	5591	3	30.334	0.000	-30.334	-0.000	-0.000	0.000
5593	5601	5602	5590	3	30.334	0.000	-30.334	-0.000	-0.000	0.000
5593	5592	5591	5590	3	30.334	0.000	-30.334	-0.000	-0.000	0.000
5614	5613	5612	5611	3	21.738	2.408	-16.966	-7.180	-0.000	0.000
5610	5609	5608	5607	3	21.738	2.408	-16.966	-7.180	-0.000	0.000
5611	5610	5609	5608	3	21.738	2.408	-16.966	-7.180	-0.000	0.000
5612	5611	5610	5609	3	21.738	2.408	-16.966	-7.180	-0.000	0.000
5613	5612	5611	5610	3	21.738	2.408	-16.966	-7.180	-0.000	0.000
5609	5608	5607	5606	3	58.576	0.000	-58.576	-0.000	-0.000	0.000
5608	5607	5606	5605	3	16.027	-4.391	-14.029	2.393	-0.000	0.000
5607	5606	5605	5604	3	30.334	0.000	-30.334	-0.000	-0.000	0.000
5616	5615	5614	5613	3	58.576	0.000	-58.576	-0.000	-0.000	0.000
5601	5593	5594	5600	3	9.079	0.000	-9.079	-0.000	-0.000	0.000
5600	5594	5593	5592	3	9.079	0.000	-9.079	-0.000	-0.000	0.000
5601	5593	5594	5595	3	9.079	0.000	-9.079	-0.000	-0.000	0.000
5595	5594	5593	5592	3	9.079	0.000	-9.079	-0.000	-0.000	0.000
5600	5594	5595	5596	3	30.334	0.000	-30.334	-0.000	-0.000	0.000
5601	5593	5592	5591	3	30.334	0.000	-30.334	-0.000	-0.000	0.000
5599	5600	5594	5593	3	30.334	0.000	-30.334	-0.000	-0.000	0.000
5602	5601	5593	5594	3	30.334	0.000	-30.334	-0.000	-0.000	0.000
5596	5595	5594	5593	3	30.334	0.000	-30.334	-0.000	-0.000	0.000
5599	5600	5594	5595	3	30.334	0.000	-30.334	-0.000	-0.000	0.000
5602	5601	5593	5592	3	30.334	0.000	-30.334	-0.000	-0.000	0.000
5642	5606	5607	5608	3	16.027	-4.391	-14.029	2.393	-0.000	0.000
5597	5599	5600	5594	3	30.334	0.000	-30.334	-0.000	-0.000	0.000
5597	5596	5595	5594	3	30.334	0.000	-30.334	-0.000	-0.000	0.000
5643	5642	5606	5607	3	30.334	0.000	-30.334	-0.000	-0.000	0.000
5632	5627	5628	5629	3	30.334	0.000	-30.334	-0.000	-0.000	0.000
5643	5642	5606	5605	3	30.334	0.000	-30.334	-0.000	-0.000	0.000
5602	5590	5591	5592	3	30.334	0.000	-30.334	-0.000	-0.000	0.000
5642	5643	5603	5604	3	30.334	0.000	-30.334	-0.000	-0.000	0.000
5632	5631	5630	5629	3	30.334	0.000	-30.334	-0.000	-0.000	0.000
5631	5630	5629	5628	3	30.334	0.000	-30.334	-0.000	-0.000	0.000
5630	5629	5628	5627	3	30.334	0.000	-30.334	-0.000	-0.000	0.000
5606	5605	5604	5603	3	30.334	0.000	-30.334	-0.000	-0.000	0.000
5606	5642	5643	5603	3	30.334	0.000	-30.334	-0.000	-0.000	0.000
5643	5603	5604	5605	3	30.334	0.000	-30.334	-0.000	-0.000	0.000
5642	5606	5605	5604	3	30.334	0.000	-30.334	-0.000	-0.000	0.000
5631	5632	5627	5628	3	30.334	0.000	-30.334	-0.000	-0.000	0.000
5600	5599	5597	5596	3	30.334	0.000	-30.334	-0.000	-0.000	0.000
5601	5602	5590	5591	3	30.334	0.000	-30.334	-0.000	-0.000	0.000
5630	5631	5632	5627	3	30.334	0.000	-30.334	-0.000	-0.000	0.000
5599	5597	5596	5595	3	30.334	0.000	-30.334	-0.000	-0.000	0.000
5631	5632	5627	5626	3	30.334	0.000	-30.334	-0.000	-0.000	0.000
5629	5628	5627	5626	3	30.334	0.000	-30.334	-0.000	-0.000	0.000
5642	5643	5603	5586	3	30.334	0.000	-30.334	-0.000	-0.000	0.000
5605	5604	5603	5586	3	30.334	0.000	-30.334	-0.000	-0.000	0.000
5600	5599	5597	5598	3	0.0	0.0	0.0	-0.0	-0.0	0.0
5592	5591	5590	5589	3	30.334	0.000	-30.334	-0.000	-0.000	0.000
5601	5602	5590	5589	3	30.334	0.000	-30.334	-0.000	-0.000	0.000
5632	5627	5626	5615	3	0.000	0.000	0.000	-0.000	-0.000	0.000
5628	5627	5626	5615	3	0.000	0.000	0.000	-0.000	-0.000	0.000
5632	5627	5626	5625	3	0.000	0.000	0.000	-0.000	-0.000	0.000
5628	5627	5626	5625	3	0.000	0.000	0.000	-0.000	-0.000	0.000
5643	5603	5586	5587	3	5.184	35.932	-14.355	-26.761	-0.000	0.000
5604	5603	5586	5587	3	5.184	35.932	-14.355	-26.761	-0.000	0.000
5604	5603	5586	5585	3	5.184	35.932	-14.355	-26.761	-0.000	0.000
5643	5603	5586	5585	3	5.184	35.932	-14.355	-26.761	-0.000	0.000
5591	5590	5589	5588	3	12.552	0.000	-12.552	-0.000	-0.000	0.000
5602	5590	5589	5588	3	12.552	0.000	-12.552	-0.000	-0.000	0.000
5627	5626	5615	5614	3	6.322	-2.485	0.707	-4.544	-0.000	0.000
5627	5626	5615	5616	3	0.527	-6.397	-1.695	7.565	-0.000	0.000
5627	5626	5625	5619	3	1.715	2.845	1.046	-5.607	-0.000	0.000
5603	5586	5587	5588	3	1.789	3.492	0.536	-5.816	-0.000	0.000
5590	5589	5588	5587	3	1.715	2.845	1.046	-5.607	-0.000	0.000
5633	5626	5627	5628	3	0.000	0.000	0.000	-0.000	-0.000	0.000
5633	5626	5627	5632	3	0.000	0.000	0.000	-0.000	-0.000	0.000
5633	5626	5615	5614	3	6.322	-2.485	0.707	-4.544	-0.000	0.000
5633	5626	5615	5616	3	0.527	-6.397	-1.695	7.565	-0.000	0.000
5633	5626	5625	5619	3	1.715	2.845	1.046	-5.607	-0.000	0.000
5615	5614	5613	5612	3	21.738	2.408	-16.966	-7.180	-0.000	0.000
5620	5619	5616	5615	3	21.738	2.408	-16.966	-7.180	-0.000	0.000
5620	5619	5616	5617	3	-0.778	-2.335	0.000	3.113	-0.000	0.000
5641	5609	5608	5607	3	58.576	0.000	-58.576	-0.000	-0.000	0.000
5637	5611	5610	5609	3	58.576	0.000	-58.576	-0.000	-0.000	0.000
5641	5609	5610	5611	3	58.576	0.000	-58.576	-0.000	-0.000	0.000
5637	5611	5612	5613	3	58.576	0.000	-58.576	-0.000	-0.000	0.000
5626	5615	5614	5613	3	-0.778	-2.335	0.000	3.113	-0.000	0.000
5626	5615	5616	5619	3	58.576	0.000	-58.576	-0.000	-0.000	0.000
5626	5615	5616	5617	3	58.576	0.000	-58.576	-0.000	-0.000	0.000
5638	5641	5609	5608	3	0.527	-6.397	-1.695	7.565	-0.000	0.000
5638	5637	5611	5612	3	0.527	-6.397	-1.695	7.565	-0.000	0.000
5638	5637	5611	5610	3	0.527	-6.397	-1.695	7.565	-0.000	0.000
5638	5641	5609	5610	3	0.527	-6.397	-1.695	7.565	-0.000	0.000
5641	5638	5637	5611	3	2.301	-1.464	0.837	-1.674	-0.000	0.000
5640	5638	5641	5609	3	2.301	-1.464	0.837	-1.674	-0.000	0.000
5637	5638	5641	5609	3	2.301	-1.464	0.837	-1.674	-0.000	0.000
5639	5638	5641	5609	3	2.301	-1.464	0.837	-1.674	-0.000	0.000
5640	5638	5637	5611	3	2.301	-1.464	0.837	-1.674	-0.000	0.000
5639	5638	5637	5611	3	2.301	-1.464	0.837	-1.674	-0.000	0.000
5588	5587	5586	5585	3	1.789	3.492	0.536	-5.816	-0.000	0.000
5626	5625	5619	5616	3	30.334	0.000	-30.334	-0.000	-0.000	0.000
5626	5625	5619	5620	3	30.334	0.000	-30.334	-0.000	-0.000	0.000
5619	5616	5615	5614	3	58.576	0.000	-58.576	-0.000	-0.000	0.000
5619	5625	5626	5615	3	1.715	2.845	1.046	-5.607	-0.000	0.000
5617	5616	5615	5614	3	58.576	0.000	-58.576	-0.000	-0.000	0.000
5621	5620	5619	5616	3	58.576	0.000	-58.576	-0.000	-0.000	0.000
5623	5620	5619	5616	3	58.576	0.000	-58.576	-0.000	-0.000	0.000
5634	5633	5626	5627	3	0.000	0.000	0.000	-0.000	-0.000	0.000
5635	5633	5626	5627	3	0.000	0.000	0.000	-0.000	-0.000	0.000
5636	5633	5626	5627	3	0.000	0.000	0.000	-0.000	-0.000	0.000
5635	5633	5626	5615	3	0.000	0.000	0.000	-0.000	-0.000	0.000
5634	5633	5626	5615	3	0.000	0.000	0.000	-0.000	-0.000	0.000
5636	5633	5626	5615	3	0.000	0.000	0.000	-0.000	-0.000	0.000
5635	5633	5626	5625	3	1.130	3.389	0.000	-4.519	-0.000	0.000
5636	5633	5626	5625	3	1.130	3.389	0.000	-4.519	-0.000	0.000
5634	5633	5626	5625	3	1.130	3.389	0.000	-4.519	-0.000	0.000
5664	5610	5609	5608	3	58.576	0.000	-58.576	-0.000	-0.000	0.000
5664	5610	5611	5612	3	58.576	0.000	-58.576	-0.000	-0.000	0.000
5664	5610	5611	5637	3	58.576	0.000	-58.576	-0.000	-0.000	0.000
5664	5610	5609	5641	3	58.576	0.000	-58.576	-0.000	-0.000	0.000
5653	5595	5594	5593	3	30.334	0.000	-30.334	-0.000	-0.000	0.000
5652	5592	5593	5594	3	30.334	0.000	-30.334	-0.000	-0.000	0.000
5658	5601	5593	5594	3	30.334	0.000	-30.334	-0.000	-0.000	0.000
5657	5600	5594	5593	3	30.334	0.000	-30.334	-0.000	-0.000	0.000
5657	5600	5594	5595	3	30.334	0.000	-30.334	-0.000	-0.000	0.000
5653	5595	5594	5600	3	30.334	0.000	-30.334	-0.000	-0.000	0.000
5652	5592	5593	5601	3	30.334	0.000	-30.334	-0.000	-0.000	0.000
5658	5601	5593	5592	3	30.334	0.000	-30.334	-0.000	-0.000	0.000
5651	5591	5592	5593	3	30.334	0.000	-30.334	-0.000	-0.000	0.000
5659	5602	5601	5593	3	30.334	0.000	-30.334	-0.000	-0.000	0.000
5654	5596	5595	5594	3	30.334	0.000	-30.334	-0.000	-0.000	0.000
5656	5599	5600	5594	3	30.334	0.000	-30.334	-0.000	-0.000	0.000
5661	5605	5606	5607	3	30.334	0.000	-30.334	-0.000	-0.000	0.000
5683	5642	5606	5607	3	30.334	0.000	-30.334	-0.000	-0.000	0.000
5668	5628	5629	5630	3	30.334	0.000	-30.334	-0.000	-0.000	0.000
5656	5599	5597	5596	3	30.334	0.000	-30.334	-0.000	-0.000	0.000
5671	5631	5630	5629	3	30.334	0.000	-30.334	-0.000	-0.000	0.000
5683	5642	5643	5603	3	30.334	0.000	-30.334	-0.000	-0.000	0.000
5669	5629	5628	5627	3	30.334	0.000	-30.334	-0.000	-0.000	0.000
5684	5643	5642	5606	3	30.334	0.000	-30.334	-0.000	-0.000	0.000
5670	5630	5629	5628	3	30.334	0.000	-30.334	-0.000	-0.000	0.000
5659	5602	5590	5591	3	30.334	0.000	-30.334	-0.000	-0.000	0.000
5658	5601	5602	5590	3	30.334	0.000	-30.334	-0.000	-0.000	0.000
5683	5642	5606	5605	3	30.334	0.000	-30.334	-0.000	-0.000	0.000
5684	5643	5603	5604	3	30.334	0.000	-30.334	-0.000	-0.000	0.000
5671	5631	5632	5627	3	30.334	0.000	-30.334	-0.000	-0.000	0.000
5668	5628	5627	5632	3	30.334	0.000	-30.334	-0.000	-0.000	0.000
5653	5595	5596	5597	3	30.334	0.000	-30.334	-0.000	-0.000	0.000
5654	5596	5597	5599	3	30.334	0.000	-30.334	-0.000	-0.000	0.000
5651	5591	5590	5602	3	30.334	0.000	-30.334	-0.000	-0.000	0.000
5660	5604	5603	5643	3	30.334	0.000	-30.334	-0.000	-0.000	0.000
5660	5604	5605	5606	3	30.334	0.000	-30.334	-0.000	-0.000	0.000
5657	5600	5599	5597	3	30.334	0.000	-30.334	-0.000	-0.000	0.000
5661	5605	5606	5642	3	30.334	0.000	-30.334	-0.000	-0.000	0.000
5670	5630	5631	5632	3	30.334	0.000	-30.334	-0.000	-0.000	0.000
5672	5632	5631	5630	3	30.334	0.000	-30.334	-0.000	-0.000	0.000
5669	5629	5630	5631	3	30.334	0.000	-30.334	-0.000	-0.000	0.000
5672	5632	5627	5628	3	30.334	0.000	-30.334	-0.000	-0.000	0.000
5652	5592	5591	5590	3	30.334	0.000	-30.334	-0.000	-0.000	0.000
5661	5605	5604	5603	3	30.334	0.000	-30.334	-0.000	-0.000	0.000
5672	5632	5627	5626	3	30.334	0.000	-30.334	-0.000	-0.000	0.000
5668	5628	5627	5626	3	30.334	0.000	-30.334	-0.000	-0.000	0.000
5661	5605	5604	5660	3	30.334	0.000	-30.334	-0.000	-0.000	0.000
5684	5643	5642	5683	3	30.334	0.000	-30.334	-0.000	-0.000	0.000
5670	5630	5629	5669	3	30.334	0.000	-30.334	-0.000	-0.000	0.000
5654	5596	5595	5653	3	30.334	0.000	-30.334	-0.000	-0.000	0.000
5659	5602	5601	5658	3	30.334	0.000	-30.334	-0.000	-0.000	0.000
5657	5600	5599	5656	3	30.334	0.000	-30.334	-0.000	-0.000	0.000
5669	5629	5628	5668	3	30.334	0.000	-30.334	-0.000	-0.000	0.000
5652	5592	5591	5651	3	30.334	0.000	-30.334	-0.000	-0.000	0.000
5671	5631	5630	5670	3	30.334	0.000	-30.334	-0.000	-0.000	0.000
5672	5632	5631	5671	3	30.334	0.000	-30.334	-0.000	-0.000	0.000
5684	5643	5603	5586	3	30.334	0.000	-30.334	-0.000	-0.000	0.000
5660	5604	5603	5586	3	30.334	0.000	-30.334	-0.000	-0.000	0.000
5654	5596	5597	5598	3	0.0	0.0	0.0	-0.0	-0.0	0.0
5656	5599	5597	5598	3	0.0	0.0	0.0	-0.0	-0.0	0.0
5651	5591	5590	5589	3	30.334	0.000	-30.334	-0.000	-0.000	0.000
5659	5602	5590	5589	3	30.334	0.000	-30.334	-0.000	-0.000	0.000
5665	5612	5611	5610	3	58.576	0.000	-58.576	-0.000	-0.000	0.000
5665	5612	5613	5614	3	58.576	0.000	-58.576	-0.000	-0.000	0.000
5667	5614	5613	5612	3	58.576	0.000	-58.576	-0.000	-0.000	0.000
5666	5613	5612	5611	3	58.576	0.000	-58.576	-0.000	-0.000	0.000
5663	5608	5609	5610	3	58.576	0.000	-58.576	-0.000	-0.000	0.000
5662	5607	5608	5609	3	58.576	0.000	-58.576	-0.000	-0.000	0.000
5663	5608	5607	5606	3	58.576	0.000	-58.576	-0.000	-0.000	0.000
5666	5613	5614	5615	3	58.576	0.000	-58.576	-0.000	-0.000	0.000
5665	5612	5611	5637	3	58.576	0.000	-58.576	-0.000	-0.000	0.000
5663	5608	5609	5641	3	58.576	0.000	-58.576	-0.000	-0.000	0.000
5663	5608	5607	5662	3	58.576	0.000	-58.576	-0.000	-0.000	0.000
5666	5613	5612	5665	3	58.576	0.000	-58.576	-0.000	-0.000	0.000
5667	5614	5613	5666	3	58.576	0.000	-58.576	-0.000	-0.000	0.000
5662	5607	5606	5642	3	-0.778	-2.335	0.000	3.113	-0.000	0.000
5662	5607	5606	5605	3	-0.778	-2.335	0.000	3.113	-0.000	0.000
5667	5614	5615	5616	3	58.576	0.000	-58.576	-0.000	-0.000	0.000
5667	5614	5615	5626	3	58.576	0.000	-58.576	-0.000	-0.000	0.000
5681	5641	5609	5608	3	-0.778	-2.335	0.000	3.113	-0.000	0.000
5681	5641	5609	5610	3	-0.778	-2.335	0.000	3.113	-0.000	0.000
5682	5641	5609	5608	3	-0.778	-2.335	0.000	3.113	-0.000	0.000
5674	5637	5611	5612	3	-0.778	-2.335	0.000	3.113	-0.000	0.000
5682	5641	5609	5610	3	-0.778	-2.335	0.000	3.113	-0.000	0.000
5673	5637	5611	5610	3	-0.778	-2.335	0.000	3.113	-0.000	0.000
5674	5637	5611	5610	3	-0.778	-2.335	0.000	3.113	-0.000	0.000
5673	5637	5611	5612	3	-0.778	-2.335	0.000	3.113	-0.000	0.000
5676	5639	5638	5641	3	0.628	1.883	0.000	-2.510	-0.000	0.000
5675	5639	5638	5640	3	0.628	1.883	0.000	-2.510	-0.000	0.000
5675	5639	5638	5637	3	0.628	1.883	0.000	-2.510	-0.000	0.000
5677	5639	5638	5640	3	0.628	1.883	0.000	-2.510	-0.000	0.000
5679	5640	5638	5637	3	0.628	1.883	0.000	-2.510	-0.000	0.000
5678	5640	5638	5637	3	0.628	1.883	0.000	-2.510	-0.000	0.000
5677	5639	5638	5637	3	0.628	1.883	0.000	-2.510	-0.000	0.000
5679	5640	5638	5639	3	0.628	1.883	0.000	-2.510	-0.000	0.000
5676	5639	5638	5637	3	0.628	1.883	0.000	-2.510	-0.000	0.000
5681	5641	5638	5637	3	0.628	1.883	0.000	-2.510	-0.000	0.000
5681	5641	5638	5639	3	0.628	1.883	0.000	-2.510	-0.000	0.000
5674	5637	5638	5639	3	0.628	1.883	0.000	-2.510	-0.000	0.000
5677	5639	5638	5641	3	0.628	1.883	0.000	-2.510	-0.000	0.000
5674	5637	5638	5640	3	0.628	1.883	0.000	-2.510	-0.000	0.000
5682	5641	5638	5639	3	0.628	1.883	0.000	-2.510	-0.000	0.000
5678	5640	5638	5641	3	0.628	1.883	0.000	-2.510	-0.000	0.000
5679	5640	5638	5641	3	0.628	1.883	0.000	-2.510	-0.000	0.000
5680	5640	5638	5637	3	0.628	1.883	0.000	-2.510	-0.000	0.000
5673	5637	5638	5640	3	0.628	1.883	0.000	-2.510	-0.000	0.000
5673	5637	5638	5639	3	0.628	1.883	0.000	-2.510	-0.000	0.000
5678	5640	5638	5639	3	0.628	1.883	0.000	-2.510	-0.000	0.000
5674	5637	5638	5641	3	0.628	1.883	0.000	-2.510	-0.000	0.000
5682	5641	5638	5640	3	0.628	1.883	0.000	-2.510	-0.000	0.000
5676	5639	5638	5640	3	0.628	1.883	0.000	-2.510	-0.000	0.000
5675	5639	5638	5641	3	0.628	1.883	0.000	-2.510	-0.000	0.000
5682	5641	5638	5637	3	0.628	1.883	0.000	-2.510	-0.000	0.000
5673	5637	5638	5641	3	0.628	1.883	0.000	-2.510	-0.000	0.000
5680	5640	5638	5639	3	0.628	1.883	0.000	-2.510	-0.000	0.000
5681	5641	5638	5640	3	0.628	1.883	0.000	-2.510	-0.000	0.000
5680	5640	5638	5641	3	0.628	1.883	0.000	-2.510	-0.000	0.000
5649	5588	5587	5648	3	0.628	1.883	0.000	-2.510	-0.000	0.000
5650	5588	5587	5647	3	0.628	1.883	0.000	-2.510	-0.000	0.000
5649	5588	5587	5647	3	0.628	1.883	0.000	-2.510	-0.000	0.000
5650	5588	5587	5648	3	0.628	1.883	0.000	-2.510	-0.000	0.000
5650	5588	5587	5586	3	-4.096	5.088	2.966	-3.958	-0.000	0.000
5649	5588	5587	5586	3	-4.096	5.088	2.966	-3.958	-0.000	0.000
5648	5587	5588	5589	3	0.979	2.937	0.000	-3.916	-0.000	0.000
5647	5587	5588	5589	3	0.979	2.937	0.000	-3.916	-0.000	0.000
5648	5587	5586	5603	3	1.172	3.515	0.000	-4.686	-0.000	0.000
5644	5585	5586	5603	3	1.172	3.515	0.000	-4.686	-0.000	0.000
5647	5587	5586	5603	3	1.172	3.515	0.000	-4.686	-0.000	0.000
5645	5585	5586	5603	3	1.172	3.515	0.000	-4.686	-0.000	0.000
5646	5585	5586	5603	3	1.172	3.515	0.000	-4.686	-0.000	0.000
5647	5587	5586	5585	3	1.172	3.515	0.000	-4.686	-0.000	0.000
5645	5585	5586	5587	3	1.172	3.515	0.000	-4.686	-0.000	0.000
5648	5587	5586	5585	3	1.172	3.515	0.000	-4.686	-0.000	0.000
5646	5585	5586	5587	3	1.172	3.515	0.000	-4.686	-0.000	0.000
5644	5585	5586	5587	3	1.172	3.515	0.000	-4.686	-0.000	0.000
5649	5588	5589	5590	3	1.590	4.770	0.000	-6.360	-0.000	0.000
5650	5588	5589	5590	3	1.590	4.770	0.000	-6.360	-0.000	0.000
5655	5598	5597	5599	3	0.0	0.0	0.0	-0.0	-0.0	0.0
5655	5598	5597	5596	3	0.0	0.0	0.0	-0.0	-0.0	0.0
5598	5597	5596	5595	3	0.0	0.0	0.0	-0.0	-0.0	0.0
5625	5626	5615	5614	3	2.874	0.582	2.092	-5.548	-0.000	0.000
5625	5626	5615	5616	3	1.046	-1.046	0.000	-0.000	-0.000	0.000
5589	5588	5587	5586	3	16.736	-16.736	0.000	-0.000	-0.000	0.000
5625	5619	5616	5615	3	1.046	-1.046	0.000	-0.000	-0.000	0.000
5625	5619	5616	5617	3	9.079	0.000	-9.079	-0.000	-0.000	0.000
5694	5693	5692	5691	3	30.334	0.000	-30.334	-0.000	-0.000	0.000
5693	5701	5702	5690	3	30.334	0.000	-30.334	-0.000	-0.000	0.000
5693	5692	5691	5690	3	30.334	0.000	-30.334	-0.000	-0.000	0.000
5714	5713	5712	5711	3	21.738	2.408	-16.966	-7.180	-0.000	0.000
5710	5709	5708	5707	3	21.738	2.408	-16.966	-7.180	-0.000	0.000
5711	5710	5709	5708	3	21.738	2.408	-16.966	-7.180	-0.000	0.000
5712	5711	5710	5709	3	21.738	2.408	-16.966	-7.180	-0.000	0.000
5713	5712	5711	5710	3	21.738	2.408	-16.966	-7.180	-0.000	0.000
5709	5708	5707	5706	3	58.576	0.000	-58.576	-0.000	-0.000	0.000
5708	5707	5706	5705	3	16.027	-4.391	-14.029	2.393	-0.000	0.000
5707	5706	5705	5704	3	30.334	0.000	-30.334	-0.000	-0.000	0.000
5716	5715	5714	5713	3	58.576	0.000	-58.576	-0.000	-0.000	0.000
5701	5693	5694	5700	3	9.079	0.000	-9.079	-0.000	-0.000	0.000
5700	5694	5693	5692	3	9.079	0.000	-9.079	-0.000	-0.000	0.000
5701	5693	5694	5695	3	9.079	0.000	-9.079	-0.000	-0.000	0.000
5695	5694	5693	5692	3	9.079	0.000	-9.079	-0.000	-0.000	0.000
5700	5694	5695	5696	3	30.334	0.000	-30.334	-0.000	-0.000	0.000
5701	5693	5692	5691	3	30.334	0.000	-30.334	-0.000	-0.000	0.000
5699	5700	5694	5693	3	30.334	0.000	-30.334	-0.000	-0.000	0.000
5702	5701	5693	5694	3	30.334	0.000	-30.334	-0.000	-0.000	0.000
5696	5695	5694	5693	3	30.334	0.000	-30.334	-0.000	-0.000	0.000
5699	5700	5694	5695	3	30.334	0.000	-30.334	-0.000	-0.000	0.000
5702	5701	5693	5692	3	30.334	0.000	-30.334	-0.000	-0.000	0.000
5742	5706	5707	5708	3	16.027	-4.391	-14.029	2.393	-0.000	0.000
5697	5699	5700	5694	3	30.334	0.000	-30.334	-0.000	-0.000	0.000
5697	5696	5695	5694	3	30.334	0.000	-30.334	-0.000	-0.000	0.000
5743	5742	5706	5707	3	30.334	0.000	-30.334	-0.000	-0.000	0.000
5732	5727	5728	5729	3	30.334	0.000	-30.334	-0.000	-0.000	0.000
5743	5742	5706	5705	3	30.334	0.000	-30.334	-0.000	-0.000	0.000
5702	5690	5691	5692	3	30.334	0.000	-30.334	-0.000	-0.000	0.000
5742	5743	5703	5704	3	30.334	0.000	-30.334	-0.000	-0.000	0.000
5732	5731	5730	5729	3	30.334	0.000	-30.334	-0.000	-0.000	0.000
5731	5730	5729	5728	3	30.334	0.000	-30.334	-0.000	-0.000	0.000
5730	5729	5728	5727	3	30.334	0.000	-30.334	-0.000	-0.000	0.000
5706	5705	5704	5703	3	30.334	0.000	-30.334	-0.000	-0.000	0.000
5706	5742	5743	5703	3	30.334	0.000	-30.334	-0.000	-0.000	0.000
5743	5703	5704	5705	3	30.334	0.000	-30.334	-0.000	-0.000	0.000
5742	5706	5705	5704	3	30.334	0.000	-30.334	-0.000	-0.000	0.000
5731	5732	5727	5728	3	30.334	0.000	-30.334	-0.000	-0.000	0.000
5700	5699	5697	5696	3	30.334	0.000	-30.334	-0.000	-0.000	0.000
5701	5702	5690	5691	3	30.334	0.000	-30.334	-0.000	-0.000	0.000
5730	5731	5732	5727	3	30.334	0.000	-30.334	-0.000	-0.000	0.000
5699	5697	5696	5695	3	30.334	0.000	-30.334	-0.000	-0.000	0.000
5731	5732	5727	5726	3	30.334	0.000	-30.334	-0.000	-0.000	0.000
5729	5728	5727	5726	3	30.334	0.000	-30.334	-0.000	-0.000	0.000
5742	5743	5703	5686	3	30.334	0.000	-30.334	-0.000	-0.000	0.000
5705	5704	5703	5686	3	30.334	0.000	-30.334	-0.000	-0.000	0.000
5700	5699	5697	5698	3	0.0	0.0	0.0	-0.0	-0.0	0.0
5692	5691	5690	5689	3	30.334	0.000	-30.334	-0.000	-0.000	0.000
5701	5702	5690	5689	3	30.334	0.000	-30.334	-0.000	-0.000	0.000
5732	5727	5726	5715	3	0.000	0.000	0.000	-0.000	-0.000	0.000
5728	5727	5726	5715	3	0.000	0.000	0.000	-0.000	-0.000	0.000
5732	5727	5726	5725	3	0.000	0.000	0.000	-0.000	-0.000	0.000
5728	5727	5726	5725	3	0.000	0.000	0.000	-0.000	-0.000	0.000
5743	5703	5686	5687	3	5.184	35.932	-14.355	-26.761	-0.000	0.000
5704	5703	5686	5687	3	5.184	35.932	-14.355	-26.761	-0.000	0.000
5704	5703	5686	5685	3	5.184	35.932	-14.355	-26.761	-0.000	0.000
5743	5703	5686	5685	3	5.184	35.932	-14.355	-26.761	-0.000	0.000
5691	5690	5689	5688	3	12.552	0.000	-12.552	-0.000	-0.000	0.000
5702	5690	5689	5688	3	12.552	0.000	-12.552	-0.000	-0.000	0.000
5727	5726	5715	5714	3	6.322	-2.485	0.707	-4.544	-0.000	0.000
5727	5726	5715	5716	3	0.527	-6.397	-1.695	7.565	-0.000	0.000
5727	5726	5725	5719	3	1.715	2.845	1.046	-5.607	-0.000	0.000
5703	5686	5687	5688	3	1.789	3.492	0.536	-5.816	-0.000	0.000
5690	5689	5688	5687	3	1.715	2.845	1.046	-5.607	-0.000	0.000
5733	5726	5727	5728	3	0.000	0.000	0.000	-0.000	-0.000	0.000
5733	5726	5727	5732	3	0.000	0.000	0.000	-0.000	-0.000	0.000
5733	5726	5715	5714	3	6.322	-2.485	0.707	-4.544	-0.000	0.000
5733	5726	5715	5716	3	0.527	-6.397	-1.695	7.565	-0.000	0.000
5733	5726	5725	5719	3	1.715	2.845	1.046	-5.607	-0.000	0.000
5715	5714	5713	5712	3	21.738	2.408	-16.966	-7.180	-0.000	0.000
5720	5719	5716	5715	3	21.738	2.408	-16.966	-7.180	-0.000	0.000
5720	5719	5716	5717	3	-0.778	-2.335	0.000	3.113	-0.000	0.000
5741	5709	5708	5707	3	58.576	0.000	-58.576	-0.000	-0.000	0.000
5737	5711	5710	5709	3	58.576	0.000	-58.576	-0.000	-0.000	0.000
5741	5709	5710	5711	3	58.576	0.000	-58.576	-0.000	-0.000	0.000
5737	5711	5712	5713	3	58.576	0.000	-58.576	-0.000	-0.000	0.000
5726	5715	5714	5713	3	-0.778	-2.335	0.000	3.113	-0.000	0.000
5726	5715	5716	5719	3	58.576	0.000	-58.576	-0.000	-0.000	0.000
5726	5715	5716	5717	3	58.576	0.000	-58.576	-0.000	-0.000	0.000
5738	5741	5709	5708	3	0.527	-6.397	-1.695	7.565	-0.000	0.000
5738	5737	5711	5712	3	0.527	-6.397	-1.695	7.565	-0.000	0.000
5738	5737	5711	5710	3	0.527	-6.397	-1.695	7.565	-0.000	0.000
5738	5741	5709	5710	3	0.527	-6.397	-1.695	7.565	-0.000	0.000
5741	5738	5737	5711	3	2.301	-1.464	0.837	-1.674	-0.000	0.000
5740	5738	5741	5709	3	2.301	-1.464	0.837	-1.674	-0.000	0.000
5737	5738	5741	5709	3	2.301	-1.464	0.837	-1.674	-0.000	0.000
5739	5738	5741	5709	3	2.301	-1.464	0.837	-1.674	-0.000	0.000
5740	5738	5737	5711	3	2.301	-1.464	0.837	-1.674	-0.000	0.000
5739	5738	5737	5711	3	2.301	-1.464	0.837	-1.674	-0.000	0.000
5688	5687	5686	5685	3	1.789	3.492	0.536	-5.816	-0.000	0.000
5726	5725	5719	5716	3	30.334	0.000	-30.334	-0.000	-0.000	0.000
5726	5725	5719	5720	3	30.334	0.000	-30.334	-0.000	-0.000	0.000
5719	5716	5715	5714	3	58.576	0.000	-58.576	-0.000	-0.000	0.000
5719	5725	5726	5715	3	1.715	2.845	1.046	-5.607	-0.000	0.000
5717	5716	5715	5714	3	58.576	0.000	-58.576	-0.000	-0.000	0.000
5721	5720	5719	5716	3	58.576	0.000	-58.576	-0.000	-0.000	0.000
5723	5720	5719	5716	3	58.576	0.000	-58.576	-0.000	-0.000	0.000
5734	5733	5726	5727	3	0.000	0.000	0.000	-0.000	-0.000	0.000
5735	5733	5726	5727	3	0.000	0.000	0.000	-0.000	-0.000	0.000
5736	5733	5726	5727	3	0.000	0.000	0.000	-0.000	-0.000	0.000
5735	5733	5726	5715	3	0.000	0.000	0.000	-0.000	-0.000	0.000
5734	5733	5726	5715	3	0.000	0.000	0.000	-0.000	-0.000	0.000
5736	5733	5726	5715	3	0.000	0.000	0.000	-0.000	-0.000	0.000
5735	5733	5726	5725	3	1.130	3.389	0.000	-4.519	-0.000	0.000
5736	5733	5726	5725	3	1.130	3.389	0.000	-4.519	-0.000	0.000
5734	5733	5726	5725	3	1.130	3.389	0.000	-4.519	-0.000	0.000
5764	5710	5709	5708	3	58.576	0.000	-58.576	-0.000	-0.000	0.000
5764	5710	5711	5712	3	58.576	0.000	-58.576	-0.000	-0.000	0.000
5764	5710	5711	5737	3	58.576	0.000	-58.576	-0.000	-0.000	0.000
5764	5710	5709	5741	3	58.576	0.000	-58.576	-0.000	-0.000	0.000
5753	5695	5694	5693	3	30.334	0.000	-30.334	-0.000	-0.000	0.000
5752	5692	5693	5694	3	30.334	0.000	-30.334	-0.000	-0.000	0.000
5758	5701	5693	5694	3	30.334	0.000	-30.334	-0.000	-0.000	0.000
5757	5700	5694	5693	3	30.334	0.000	-30.334	-0.000	-0.000	0.000
5757	5700	5694	5695	3	30.334	0.000	-30.334	-0.000	-0.000	0.000
5753	5695	5694	5700	3	30.334	0.000	-30.334	-0.000	-0.000	0.000
5752	5692	5693	5701	3	30.334	0.000	-30.334	-0.000	-0.000	0.000
5758	5701	5693	5692	3	30.334	0.000	-30.334	-0.000	-0.000	0.000
5751	5691	5692	5693	3	30.334	0.000	-30.334	-0.000	-0.000	0.000
5759	5702	5701	5693	3	30.334	0.000	-30.334	-0.000	-0.000	0.000
5754	5696	5695	5694	3	30.334	0.000	-30.334	-0.000	-0.000	0.000
5756	5699	5700	5694	3	30.334	0.000	-30.334	-0.000	-0.000	0.000
5761	5705	5706	5707	3	30.334	0.000	-30.334	-0.000	-0.000	0.000
5783	5742	5706	5707	3	30.334	0.000	-30.334	-0.000	-0.000	0.000
5768	5728	5729	5730	3	30.334	0.000	-30.334	-0.000	-0.000	0.000
5756	5699	5697	5696	3	30.334	0.000	-30.334	-0.000	-0.000	0.000
5771	5731	5730	5729	3	30.334	0.000	-30.334	-0.000	-0.000	0.000
5783	5742	5743	5703	3	30.334	0.000	-30.334	-0.000	-0.000	0.000
5769	5729	5728	5727	3	30.334	0.000	-30.334	-0.000	-0.000	0.000
5784	5743	5742	5706	3	30.334	0.000	-30.334	-0.000	-0.000	0.000
5770	5730	5729	5728	3	30.334	0.000	-30.334	-0.000	-0.000	0.000
5759	5702	5690	5691	3	30.334	0.000	-30.334	-0.000	-0.000	0.000
5758	5701	5702	5690	3	30.334	0.000	-30.334	-0.000	-0.000	0.000
5783	5742	5706	5705	3	30.334	0.000	-30.334	-0.000	-0.000	0.000
5784	5743	5703	5704	3	30.334	0.000	-30.334	-0.000	-0.000	0.000
5771	5731	5732	5727	3	30.334	0.000	-30.334	-0.000	-0.000	0.000
5768	5728	5727	5732	3	30.334	0.000	-30.334	-0.000	-0.000	0.000
5753	5695	5696	5697	3	30.334	0.000	-30.334	-0.000	-0.000	0.000
5754	5696	5697	5699	3	30.334	0.000	-30.334	-0.000	-0.000	0.000
5751	5691	5690	5702	3	30.334	0.000	-30.334	-0.000	-0.000	0.000
5760	5704	5703	5743	3	30.334	0.000	-30.334	-0.000	-0.000	0.000
5760	5704	5705	5706	3	30.334	0.000	-30.334	-0.000	-0.000	0.000
5757	5700	5699	5697	3	30.334	0.000	-30.334	-0.000	-0.000	0.000
5761	5705	5706	5742	3	30.334	0.000	-30.334	-0.000	-0.000	0.000
5770	5730	5731	5732	3	30.334	0.000	-30.334	-0.000	-0.000	0.000
5772	5732	5731	5730	3	30.334	0.000	-30.334	-0.000	-0.000	0.000
5769	5729	5730	5731	3	30.334	0.000	-30.334	-0.000	-0.000	0.000
5772	5732	5727	5728	3	30.334	0.000	-30.334	-0.000	-0.000	0.000
5752	5692	5691	5690	3	30.334	0.000	-30.334	-0.000	-0.000	0.000
5761	5705	5704	5703	3	30.334	0.000	-30.334	-0.000	-0.000	0.000
5772	5732	5727	5726	3	30.334	0.000	-30.334	-0.000	-0.000	0.000
5768	5728	5727	5726	3	30.334	0.000	-30.334	-0.000	-0.000	0.000
5761	5705	5704	5760	3	30.334	0.000	-30.334	-0.000	-0.000	0.000
5784	5743	5742	5783	3	30.334	0.000	-30.334	-0.000	-0.000	0.000
5770	5730	5729	5769	3	30.334	0.000	-30.334	-0.000	-0.000	0.000
5754	5696	5695	5753	3	30.334	0.000	-30.334	-0.000	-0.000	0.000
5759	5702	5701	5758	3	30.334	0.000	-30.334	-0.000	-0.000	0.000
5757	5700	5699	5756	3	30.334	0.000	-30.334	-0.000	-0.000	0.000
5769	5729	5728	5768	3	30.334	0.000	-30.334	-0.000	-0.000	0.000
5752	5692	5691	5751	3	30.334	0.000	-30.334	-0.000	-0.000	0.000
5771	5731	5730	5770	3	30.334	0.000	-30.334	-0.000	-0.000	0.000
5772	5732	5731	5771	3	30.334	0.000	-30.334	-0.000	-0.000	0.000
5784	5743	5703	5686	3	30.334	0.000	-30.334	-0.000	-0.000	0.000
5760	5704	5703	5686	3	30.334	0.000	-30.334	-0.000	-0.000	0.000
5754	5696	5697	5698	3	0.0	0.0	0.0	-0.0	-0.0	0.0
5756	5699	5697	5698	3	0.0	0.0	0.0	-0.0	-0.0	0.0
5751	5691	5690	5689	3	30.334	0.000	-30.334	-0.000	-0.000	0.000
5759	5702	5690	5689	3	30.334	0.000	-30.334	-0.000	-0.000	0.000
5765	5712	5711	5710	3	58.576	0.000	-58.576	-0.000	-0.000	0.000
5765	5712	5713	5714	3	58.576	0.000	-58.576	-0.000	-0.000	0.000
5767	5714	5713	5712	3	58.576	0.000	-58.576	-0.000	-0.000	0.000
5766	5713	5712	5711	3	58.576	0.000	-58.576	-0.000	-0.000	0.000
5763	5708	5709	5710	3	58.576	0.000	-58.576	-0.000	-0.000	0.000
5762	5707	5708	5709	3	58.576	0.000	-58.576	-0.000	-0.000	0.000
5763	5708	5707	5706	3	58.576	0.000	-58.576	-0.000	-0.000	0.000
5766	5713	5714	5715	3	58.576	0.000	-58.576	-0.000	-0.000	0.000
5765	5712	5711	5737	3	58.576	0.000	-58.576	-0.000	-0.000	0.000
5763	5708	5709	5741	3	58.576	0.000	-58.576	-0.000	-0.000	0.000
5763	5708	5707	5762	3	58.576	0.000	-58.576	-0.000	-0.000	0.000
5766	5713	5712	5765	3	58.576	0.000	-58.576	-0.000	-0.000	0.000
5767	5714	5713	5766	3	58.576	0.000	-58.576	-0.000	-0.000	0.000
5762	5707	5706	5742	3	-0.778	-2.335	0.000	3.113	-0.000	0.000
5762	5707	5706	5705	3	-0.778	-2.335	0.000	3.113	-0.000	0.000
5767	5714	5715	5716	3	58.576	0.000	-58.576	-0.000	-0.000	0.000
5767	5714	5715	5726	3	58.576	0.000	-58.576	-0.000	-0.000	0.000
5781	5741	5709	5708	3	-0.778	-2.335	0.000	3.113	-0.000	0.000
5781	5741	5709	5710	3	-0.778	-2.335	0.000	3.113	-0.000	0.000
5782	5741	5709	5708	3	-0.778	-2.335	0.000	3.113	-0.000	0.000
5774	5737	5711	5712	3	-0.778	-2.335	0.000	3.113	-0.000	0.000
5782	5741	5709	5710	3	-0.778	-2.335	0.000	3.113	-0.000	0.000
5773	5737	5711	5710	3	-0.778	-2.335	0.000	3.113	-0.000	0.000
5774	5737	5711	5710	3	-0.778	-2.335	0.000	3.113	-0.000	0.000
5773	5737	5711	5712	3	-0.778	-2.335	0.000	3.113	-0.000	0.000
5776	5739	5738	5741	3	0.628	1.883	0.000	-2.510	-0.000	0.000
5775	5739	5738	5740	3	0.628	1.883	0.000	-2.510	-0.000	0.000
5775	5739	5738	5737	3	0.628	1.883	0.000	-2.510	-0.000	0.000
5777	5739	5738	5740	3	0.628	1.883	0.000	-2.510	-0.000	0.000
5779	5740	5738	5737	3	0.628	1.883	0.000	-2.510	-0.000	0.000
5778	5740	5738	5737	3	0.628	1.883	0.000	-2.510	-0.000	0.000
5777	5739	5738	5737	3	0.628	1.883	0.000	-2.510	-0.000	0.000
5779	5740	5738	5739	3	0.628	1.883	0.000	-2.510	-0.000	0.000
5776	5739	5738	5737	3	0.628	1.883	0.000	-2.510	-0.000	0.000
5781	5741	5738	5737	3	0.628	1.883	0.000	-2.510	-0.000	0.000
5781	5741	5738	5739	3	0.628	1.883	0.000	-2.510	-0.000	0.000
5774	5737	5738	5739	3	0.628	1.883	0.000	-2.510	-0.000	0.000
5777	5739	5738	5741	3	0.628	1.883	0.000	-2.510	-0.000	0.000
5774	5737	5738	5740	3	0.628	1.883	0.000	-2.510	-0.000	0.000
5782	5741	5738	5739	3	0.628	1.883	0.000	-2.510	-0.000	0.000
5778	5740	5738	5741	3	0.628	1.883	0.000	-2.510	-0.000	0.000
5779	5740	5738	5741	3	0.628	1.883	0.000	-2.510	-0.000	0.000
5780	5740	5738	5737	3	0.628	1.883	0.000	-2.510	-0.000	0.000
5773	5737	5738	5740	3	0.628	1.883	0.000	-2.510	-0.000	0.000
5773	5737	5738	5739	3	0.628	1.883	0.000	-2.510	-0.000	0.000
5778	5740	5738	5739	3	0.628	1.883	0.000	-2.510	-0.000	0.000
5774	5737	5738	5741	3	0.628	1.883	0.000	-2.510	-0.000	0.000
5782	5741	5738	5740	3	0.628	1.883	0.000	-2.510	-0.000	0.000
5776	5739	5738	5740	3	0.628	1.883	0.000	-2.510	-0.000	0.000
5775	5739	5738	5741	3	0.628	1.883	0.000	-2.510	-0.000	0.000
5782	5741	5738	5737	3	0.628	1.883	0.000	-2.510	-0.000	0.000
5773	5737	5738	5741	3	0.628	1.883	0.000	-2.510	-0.000	0.000
5780	5740	5738	5739	3	0.628	1.883	0.000	-2.510	-0.000	0.000
5781	5741	5738	5740	3	0.628	1.883	0.000	-2.510	-0.000	0.000
5780	5740	5738	5741	3	0.628	1.883	0.000	-2.510	-0.000	0.000
5749	5688	5687	5748	3	0.628	1.883	0.000	-2.510	-0.000	0.000
5750	5688	5687	5747	3	0.628	1.883	0.000	-2.510	-0.000	0.000
5749	5688	5687	5747	3	0.628	1.883	0.000	-2.510	-0.000	0.000
5750	5688	5687	5748	3	0.628	1.883	0.000	-2.510	-0.000	0.000
5750	5688	5687	5686	3	-4.096	5.088	2.966	-3.958	-0.000	0.000
5749	5688	5687	5686	3	-4.096	5.088	2.966	-3.958	-0.000	0.000
5748	5687	5688	5689	3	0.979	2.937	0.000	-3.916	-0.000	0.000
5747	5687	5688	5689	3	0.979	2.937	0.000	-3.916	-0.000	0.000
5748	5687	5686	5703	3	1.172	3.515	0.000	-4.686	-0.000	0.000
5744	5685	5686	5703	3	1.172	3.515	0.000	-4.686	-0.000	0.000
5747	5687	5686	5703	3	1.172	3.515	0.000	-4.686	-0.000	0.000
5745	5685	5686	5703	3	1.172	3.515	0.000	-4.686	-0.000	0.000
5746	5685	5686	5703	3	1.172	3.515	0.000	-4.686	-0.000	0.000
5747	5687	5686	5685	3	1.172	3.515	0.000	-4.686	-0.000	0.000
5745	5685	5686	5687	3	1.172	3.515	0.000	-4.686	-0.000	0.000
5748	5687	5686	5685	3	1.172	3.515	0.000	-4.686	-0.000	0.000
5746	5685	5686	5687	3	1.172	3.515	0.000	-4.686	-0.000	0.000
5744	5685	5686	5687	3	1.172	3.515	0.000	-4.686	-0.000	0.000
5749	5688	5689	5690	3	1.590	4.770	0.000	-6.360	-0.000	0.000
5750	5688	5689	5690	3	1.590	4.770	0.000	-6.360	-0.000	0.000
5755	5698	5697	5699	3	0.0	0.0	0.0	-0.0	-0.0	0.0
5755	5698	5697	5696	3	0.0	0.0	0.0	-0.0	-0.0	0.0
5698	5697	5696	5695	3	0.0	0.0	0.0	-0.0	-0.0	0.0
5725	5726	5715	5714	3	2.874	0.582	2.092	-5.548	-0.000	0.000
5725	5726	5715	5716	3	1.046	-1.046	0.000	-0.000	-0.000	0.000
5689	5688	5687	5686	3	16.736	-16.736	0.000	-0.000	-0.000	0.000
5725	5719	5716	5715	3	1.046	-1.046	0.000	-0.000	-0.000	0.000
5725	5719	5716	5717	3	9.079	0.000	-9.079	-0.000	-0.000	0.000
5794	5793	5792	5791	3	30.334	0.000	-30.334	-0.000	-0.000	0.000
5793	5801	5802	5790	3	30.334	0.000	-30.334	-0.000	-0.000	0.000
5793	5792	5791	5790	3	30.334	0.000	-30.334	-0.000	-0.000	0.000
5814	5813	5812	5811	3	21.738	2.408	-16.966	-7.180	-0.000	0.000
5810	5809	5808	5807	3	21.738	2.408	-16.966	-7.180	-0.000	0.000
5811	5810	5809	5808	3	21.738	2.408	-16.966	-7.180	-0.000	0.000
5812	5811	5810	5809	3	21.738	2.408	-16.966	-7.180	-0.000	0.000
5813	5812	5811	5810	3	21.738	2.408	-16.966	-7.180	-0.000	0.000
5809	5808	5807	5806	3	58.576	0.000	-58.576	-0.000	-0.000	0.000
5808	5807	5806	5805	3	16.027	-4.391	-14.029	2.393	-0.000	0.000
5807	5806	5805	5804	3	30.334	0.000	-30.334	-0.000	-0.000	0.000
5816	5815	5814	5813	3	58.576	0.000	-58.576	-0.000	-0.000	0.000
5801	5793	5794	5800	3	9.079	0.000	-9.079	-0.000	-0.000	0.000
5800	5794	5793	5792	3	9.079	0.000	-9.079	-0.000	-0.000	0.000
5801	5793	5794	5795	3	9.079	0.000	-9.079	-0.000	-0.000	0.000
5795	5794	5793	5792	3	9.079	0.000	-9.079	-0.000	-0.000	0.000
5800	5794	5795	5796	3	30.334	0.000	-30.334	-0.000	-0.000	0.000
5801	5793	5792	5791	3	30.334	0.000	-30.334	-0.000	-0.000	0.000
5799	5800	5794	5793	3	30.334	0.000	-30.334	-0.000	-0.000	0.000
5802	5801	5793	5794	3	30.334	0.000	-30.334	-0.000	-0.000	0.000
5796	5795	5794	5793	3	30.334	0.000	-30.334	-0.000	-0.000	0.000
5799	5800	5794	5795	3	30.334	0.000	-30.334	-0.000	-0.000	0.000
5802	5801	5793	5792	3	30.334	0.000	-30.334	-0.000	-0.000	0.000
5842	5806	5807	5808	3	16.027	-4.391	-14.029	2.393	-0.000	0.000
5797	5799	5800	5794	3	30.334	0.000	-30.334	-0.000	-0.000	0.000
5797	5796	5795	5794	3	30.334	0.000	-30.334	-0.000	-0.000	0.000
5843	5842	5806	5807	3	30.334	0.000	-30.334	-0.000	-0.000	0.000
5832	5827	5828	5829	3	30.334	0.000	-30.334	-0.000	-0.000	0.000
5843	5842	5806	5805	3	30.334	0.000	-30.334	-0.000	-0.000	0.000
5802	5790	5791	5792	3	30.334	0.000	-30.334	-0.000	-0.000	0.000
5842	5843	5803	5804	3	30.334	0.000	-30.334	-0.000	-0.000	0.000
5832	5831	5830	5829	3	30.334	0.000	-30.334	-0.000	-0.000	0.000
5831	5830	5829	5828	3	30.334	0.000	-30.334	-0.000	-0.000	0.000
5830	5829	5828	5827	3	30.334	0.000	-30.334	-0.000	-0.000	0.000
5806	5805	5804	5803	3	30.334	0.000	-30.334	-0.000	-0.000	0.000
5806	5842	5843	5803	3	30.334	0.000	-30.334	-0.000	-0.000	0.000
5843	5803	5804	5805	3	30.334	0.000	-30.334	-0.000	-0.000	0.000
5842	5806	5805	5804	3	30.334	0.000	-30.334	-0.000	-0.000	0.000
5831	5832	5827	5828	3	30.334	0.000	-30.334	-0.000	-0.000	0.000
5800	5799	5797	5796	3	30.334	0.000	-30.334	-0.000	-0.000	0.000
5801	5802	5790	5791	3	30.334	0.000	-30.334	-0.000	-0.000	0.000
5830	5831	5832	5827	3	30.334	0.000	-30.334	-0.000	-0.000	0.000
5799	5797	5796	5795	3	30.334	0.000	-30.334	-0.000	-0.000	0.000
5831	5832	5827	5826	3	30.334	0.000	-30.334	-0.000	-0.000	0.000
5829	5828	5827	5826	3	30.334	0.000	-30.334	-0.000	-0.000	0.000
5842	5843	5803	5786	3	30.334	0.000	-30.334	-0.000	-0.000	0.000
5805	5804	5803	5786	3	30.334	0.000	-30.334	-0.000	-0.000	0.000
5800	5799	5797	5798	3	0.0	0.0	0.0	-0.0	-0.0	0.0
5792	5791	5790	5789	3	30.334	0.000	-30.334	-0.000	-0.000	0.000
5801	5802	5790	5789	3	30.334	0.000	-30.334	-0.000	-0.000	0.000
5832	5827	5826	5815	3	0.000	0.000	0.000	-0.000	-0.000	0.000
5828	5827	5826	5815	3	0.000	0.000	0.000	-0.000	-0.000	0.000
5832	5827	5826	5825	3	0.000	0.000	0.000	-0.000	-0.000	0.000
5828	5827	5826	5825	3	0.000	0.000	0.000	-0.000	-0.000	0.000
5843	5803	5786	5787	3	5.184	35.932	-14.355	-26.761	-0.000	0.000
5804	5803	5786	5787	3	5.184	35.932	-14.355	-26.761	-0.000	0.000
5804	5803	5786	5785	3	5.184	35.932	-14.355	-26.761	-0.000	0.000
5843	5803	5786	5785	3	5.184	35.932	-14.355	-26.761	-0.000	0.000
5791	5790	5789	5788	3	12.552	0.000	-12.552	-0.000	-0.000	0.000
5802	5790	5789	5788	3	12.552	0.000	-12.552	-0.000	-0.000	0.000
5827	5826	5815	5814	3	6.322	-2.485	0.707	-4.544	-0.000	0.000
5827	5826	5815	5816	3	0.527	-6.397	-1.695	7.565	-0.000	0.000
5827	5826	5825	5819	3	1.715	2.845	1.046	-5.607	-0.000	0.000
5803	5786	5787	5788	3	1.789	3.492	0.536	-5.816	-0.000	0.000
5790	5789	5788	5787	3	1.715	2.845	1.046	-5.607	-0.000	0.000
5833	5826	5827	5828	3	0.000	0.000	0.000	-0.000	-0.000	0.000
5833	5826	5827	5832	3	0.000	0.000	0.000	-0.000	-0.000	0.000
5833	5826	5815	5814	3	6.322	-2.485	0.707	-4.544	-0.000	0.000
5833	5826	5815	5816	3	0.527	-6.397	-1.695	7.565	-0.000	0.000
5833	5826	5825	5819	3	1.715	2.845	1.046	-5.607	-0.000	0.000
5815	5814	5813	5812	3	21.738	2.408	-16.966	-7.180	-0.000	0.000
5820	5819	5816	5815	3	21.738	2.408	-16.966	-7.180	-0.000	0.000
5820	5819	5816	5817	3	-0.778	-2.335	0.000	3.113	-0.000	0.000
5841	5809	5808	5807	3	58.576	0.000	-58.576	-0.000	-0.000	0.000
5837	5811	5810	5809	3	58.576	0.000	-58.576	-0.000	-0.000	0.000
5841	5809	5810	5811	3	58.576	0.000	-58.576	-0.000	-0.000	0.000
5837	5811	5812	5813	3	58.576	0.000	-58.576	-0.000	-0.000	0.000
5826	5815	5814	5813	3	-0.778	-2.335	0.000	3.113	-0.000	0.000
5826	5815	5816	5819	3	58.576	0.000	-58.576	-0.000	-0.000	0.000
5826	5815	5816	5817	3	58.576	0.000	-58.576	-0.000	-0.000	0.000
5838	5841	5809	5808	3	0.527	-6.397	-1.695	7.565	-0.000	0.000
5838	5837	5811	5812	3	0.527	-6.397	-1.695	7.565	-0.000	0.000
5838	5837	5811	5810	3	0.527	-6.397	-1.695	7.565	-0.000	0.000
5838	5841	5809	5810	3	0.527	-6.397	-1.695	7.565	-0.000	0.000
5841	5838	5837	5811	3	2.301	-1.464	0.837	-1.674	-0.000	0.000
5840	5838	5841	5809	3	2.301	-1.464	0.837	-1.674	-0.000	0.000
5837	5838	5841	5809	3	2.301	-1.464	0.837	-1.674	-0.000	0.000
5839	5838	5841	5809	3	2.301	-1.464	0.837	-1.674	-0.000	0.000
5840	5838	5837	5811	3	2.301	-1.464	0.837	-1.674	-0.000	0.000
5839	5838	5837	5811	3	2.301	-1.464	0.837	-1.674	-0.000	0.000
5788	5787	5786	5785	3	1.789	3.492	0.536	-5.816	-0.000	0.000
5826	5825	5819	5816	3	30.334	0.000	-30.334	-0.000	-0.000	0.000
5826	5825	5819	5820	3	30.334	0.000	-30.334	-0.000	-0.000	0.000
5819	5816	5815	5814	3	58.576	0.000	-58.576	-0.000	-0.000	0.000
5819	5825	5826	5815	3	1.715	2.845	1.046	-5.607	-0.000	0.000
5817	5816	5815	5814	3	58.576	0.000	-58.576	-0.000	-0.000	0.000
5821	5820	5819	5816	3	58.576	0.000	-58.576	-0.000	-0.000	0.000
5823	5820	5819	5816	3	58.576	0.000	-58.576	-0.000	-0.000	0.000
5834	5833	5826	5827	3	0.000	0.000	0.000	-0.000	-0.000	0.000
5835	5833	5826	5827	3	0.000	0.000	0.000	-0.000	-0.000	0.000
5836	5833	5826	5827	3	0.000	0.000	0.000	-0.000	-0.000	0.000
5835	5833	5826	5815	3	0.000	0.000	0.000	-0.000	-0.000	0.000
5834	5833	5826	5815	3	0.000	0.000	0.000	-0.000	-0.000	0.000
5836	5833	5826	5815	3	0.000	0.000	0.000	-0.000	-0.000	0.000
5835	5833	5826	5825	3	1.130	3.389	0.000	-4.519	-0.000	0.000
5836	5833	5826	5825	3	1.130	3.389	0.000	-4.519	-0.000	0.000
5834	5833	5826	5825	3	1.130	3.389	0.000	-4.519	-0.000	0.000
5864	5810	5809	5808	3	58.576	0.000	-58.576	-0.000	-0.000	0.000
5864	5810	5811	5812	3	58.576	0.000	-58.576	-0.000	-0.000	0.000
5864	5810	5811	5837	3	58.576	0.000	-58.576	-0.000	-0.000	0.000
5864	5810	5809	5841	3	58.576	0.000	-58.576	-0.000	-0.000	0.000
5853	5795	5794	5793	3	30.334	0.000	-30.334	-0.000	-0.000	0.000
5852	5792	5793	5794	3	30.334	0.000	-30.334	-0.000	-0.000	0.000
5858	5801	5793	5794	3	30.334	0.000	-30.334	-0.000	-0.000	0.000
5857	5800	5794	5793	3	30.334	0.000	-30.334	-0.000	-0.000	0.000
5857	5800	5794	5795	3	30.334	0.000	-30.334	-0.000	-0.000	0.000
5853	5795	5794	5800	3	30.334	0.000	-30.334	-0.000	-0.000	0.000
5852	5792	5793	5801	3	30.334	0.000	-30.334	-0.000	-0.000	0.000
5858	5801	5793	5792	3	30.334	0.000	-30.334	-0.000	-0.000	0.000
5851	5791	5792	5793	3	30.334	0.000	-30.334	-0.000	-0.000	0.000
5859	5802	5801	5793	3	30.334	0.000	-30.334	-0.000	-0.000	0.000
5854	5796	5795	5794	3	30.334	0.000	-30.334	-0.000	-0.000	0.000
5856	5799	5800	5794	3	30.334	0.000	-30.334	-0.000	-0.000	0.000
5861	5805	5806	5807	3	30.334	0.000	-30.334	-0.000	-0.000	0.000
5883	5842	5806	5807	3	30.334	0.000	-30.334	-0.000	-0.000	0.000
5868	5828	5829	5830	3	30.334	0.000	-30.334	-0.000	-0.000	0.000
5856	5799	5797	5796	3	30.334	0.000	-30.334	-0.000	-0.000	0.000
5871	5831	5830	5829	3	30.334	0.000	-30.334	-0.000	-0.000	0.000
5883	5842	5843	5803	3	30.334	0.000	-30.334	-0.000	-0.000	0.000
5869	5829	5828	5827	3	30.334	0.000	-30.334	-0.000	-0.000	0.000
5884	5843	5842	5806	3	30.334	0.000	-30.334	-0.000	-0.000	0.000
5870	5830	5829	5828	3	30.334	0.000	-30.334	-0.000	-0.000	0.000
5859	5802	5790	5791	3	30.334	0.000	-30.334	-0.000	-0.000	0.000
5858	5801	5802	5790	3	30.334	0.000	-30.334	-0.000	-0.000	0.000
5883	5842	5806	5805	3	30.334	0.000	-30.334	-0.000	-0.000	0.000
5884	5843	5803	5804	3	30.334	0.000	-30.334	-0.000	-0.000	0.000
5871	5831	5832	5827	3	30.334	0.000	-30.334	-0.000	-0.000	0.000
5868	5828	5827	5832	3	30.334	0.000	-30.334	-0.000	-0.000	0.000
5853	5795	5796	5797	3	30.334	0.000	-30.334	-0.000	-0.000	0.000
5854	5796	5797	5799	3	30.334	0.000	-30.334	-0.000	-0.000	0.000
5851	5791	5790	5802	3	30.334	0.000	-30.334	-0.000	-0.000	0.000
5860	5804	5803	5843	3	30.334	0.000	-30.334	-0.000	-0.000	0.000
5860	5804	5805	5806	3	30.334	0.000	-30.334	-0.000	-0.000	0.000
5857	5800	5799	5797	3	30.334	0.000	-30.334	-0.000	-0.000	0.000
5861	5805	5806	5842	3	30.334	0.000	-30.334	-0.000	-0.000	0.000
5870	5830	5831	5832	3	30.334	0.000	-30.334	-0.000	-0.000	0.000
5872	5832	5831	5830	3	30.334	0.000	-30.334	-0.000	-0.000	0.000
5869	5829	5830	5831	3	30.334	0.000	-30.334	-0.000	-0.000	0.000
5872	5832	5827	5828	3	30.334	0.000	-30.334	-0.000	-0.000	0.000
5852	5792	5791	5790	3	30.334	0.000	-30.334	-0.000	-0.000	0.000
5861	5805	5804	5803	3	30.334	0.000	-30.334	-0.000	-0.000	0.000
5872	5832	5827	5826	3	30.334	0.000	-30.334	-0.000	-0.000	0.000
5868	5828	5827	5826	3	30.334	0.000	-30.334	-0.000	-0.000	0.000
5861	5805	5804	5860	3	30.334	0.000	-30.334	-0.000	-0.000	0.000
5884	5843	5842	5883	3	30.334	0.000	-30.334	-0.000	-0.000	0.000
5870	5830	5829	5869	3	30.334	0.000	-30.334	-0.000	-0.000	0.000
5854	5796	5795	5853	3	30.334	0.000	-30.334	-0.000	-0.000	0.000
5859	5802	5801	5858	3	30.334	0.000	-30.334	-0.000	-0.000	0.000
5857	5800	5799	5856	3	30.334	0.000	-30.334	-0.000	-0.000	0.000
5869	5829	5828	5868	3	30.334	0.000	-30.334	-0.000	-0.000	0.000
5852	5792	5791	5851	3	30.334	0.000	-30.334	-0.000	-0.000	0.000
5871	5831	5830	5870	3	30.334	0.000	-30.334	-0.000	-0.000	0.000
5872	5832	5831	5871	3	30.334	0.000	-30.334	-0.000	-0.000	0.000
5884	5843	5803	5786	3	30.334	0.000	-30.334	-0.000	-0.000	0.000
5860	5804	5803	5786	3	30.334	0.000	-30.334	-0.000	-0.000	0.000
5854	5796	5797	5798	3	0.0	0.0	0.0	-0.0	-0.0	0.0
5856	5799	5797	5798	3	0.0	0.0	0.0	-0.0	-0.0	0.0
5851	5791	5790	5789	3	30.334	0.000	-30.334	-0.000	-0.000	0.000
5859	5802	5790	5789	3	30.334	0.000	-30.334	-0.000	-0.000	0.000
5865	5812	5811	5810	3	58.576	0.000	-58.576	-0.000	-0.000	0.000
5865	5812	5813	5814	3	58.576	0.000	-58.576	-0.000	-0.000	0.000
5867	5814	5813	5812	3	58.576	0.000	-58.576	-0.000	-0.000	0.000
5866	5813	5812	5811	3	58.576	0.000	-58.576	-0.000	-0.000	0.000
5863	5808	5809	5810	3	58.576	0.000	-58.576	-0.000	-0.000	0.000
5862	5807	5808	5809	3	58.576	0.000	-58.576	-0.000	-0.000	0.000
5863	5808	5807	5806	3	58.576	0.000	-58.576	-0.000	-0.000	0.000
5866	5813	5814	5815	3	58.576	0.000	-58.576	-0.000	-0.000	0.000
5865	5812	5811	5837	3	58.576	0.000	-58.576	-0.000	-0.000	0.000
5863	5808	5809	5841	3	58.576	0.000	-58.576	-0.000	-0.000	0.000
5863	5808	5807	5862	3	58.576	0.000	-58.576	-0.000	-0.000	0.000
5866	5813	5812	5865	3	58.576	0.000	-58.576	-0.000	-0.000	0.000
5867	5814	5813	5866	3	58.576	0.000	-58.576	-0.000	-0.000	0.000
5862	5807	5806	5842	3	-0.778	-2.335	0.000	3.113	-0.000	0.000
5862	5807	5806	5805	3	-0.778	-2.335	0.000	3.113	-0.000	0.000
5867	5814	5815	5816	3	58.576	0.000	-58.576	-0.000	-0.000	0.000
5867	5814	5815	5826	3	58.576	0.000	-58.576	-0.000	-0.000	0.000
5881	5841	5809	5808	3	-0.778	-2.335	0.000	3.113	-0.000	0.000
5881	5841	5809	5810	3	-0.778	-2.335	0.000	3.113	-0.000	0.000
5882	5841	5809	5808	3	-0.778	-2.335	0.000	3.113	-0.000	0.000
5874	5837	5811	5812	3	-0.778	-2.335	0.000	3.113	-0.000	0.000
5882	5841	5809	5810	3	-0.778	-2.335	0.000	3.113	-0.000	0.000
5873	5837	5811	5810	3	-0.778	-2.335	0.000	3.113	-0.000	0.000
5874	5837	5811	5810	3	-0.778	-2.335	0.000	3.113	-0.000	0.000
5873	5837	5811	5812	3	-0.778	-2.335	0.000	3.113	-0.000	0.000
5876	5839	5838	5841	3	0.628	1.883	0.000	-2.510	-0.000	0.000
5875	5839	5838	5840	3	0.628	1.883	0.000	-2.510	-0.000	0.000
5875	5839	5838	5837	3	0.628	1.883	0.000	-2.510	-0.000	0.000
5877	5839	5838	5840	3	0.628	1.883	0.000	-2.510	-0.000	0.000
5879	5840	5838	5837	3	0.628	1.883	0.000	-2.510	-0.000	0.000
5878	5840	5838	5837	3	0.628	1.883	0.000	-2.510	-0.000	0.000
5877	5839	5838	5837	3	0.628	1.883	0.000	-2.510	-0.000	0.000
5879	5840	5838	5839	3	0.628	1.883	0.000	-2.510	-0.000	0.000
5876	5839	5838	5837	3	0.628	1.883	0.000	-2.510	-0.000	0.000
5881	5841	5838	5837	3	0.628	1.883	0.000	-2.510	-0.000	0.000
5881	5841	5838	5839	3	0.628	1.883	0.000	-2.510	-0.000	0.000
5874	5837	5838	5839	3	0.628	1.883	0.000	-2.510	-0.000	0.000
5877	5839	5838	5841	3	0.628	1.883	0.000	-2.510	-0.000	0.000
5874	5837	5838	5840	3	0.628	1.883	0.000	-2.510	-0.000	0.000
5882	5841	5838	5839	3	0.628	1.883	0.000	-2.510	-0.000	0.000
5878	5840	5838	5841	3	0.628	1.883	0.000	-2.510	-0.000	0.000
5879	5840	5838	5841	3	0.628	1.883	0.000	-2.510	-0.000	0.000
5880	5840	5838	5837	3	0.628	1.883	0.000	-2.510	-0.000	0.000
5873	5837	5838	5840	3	0.628	1.883	0.000	-2.510	-0.000	0.000
5873	5837	5838	5839	3	0.628	1.883	0.000	-2.510	-0.000	0.000
5878	5840	5838	5839	3	0.628	1.883	0.000	-2.510	-0.000	0.000
5874	5837	5838	5841	3	0.628	1.883	0.000	-2.510	-0.000	0.000
5882	5841	5838	5840	3	0.628	1.883	0.000	-2.510	-0.000	0.000
5876	5839	5838	5840	3	0.628	1.883	0.000	-2.510	-0.000	0.000
5875	5839	5838	5841	3	0.628	1.883	0.000	-2.510	-0.000	0.000
5882	5841	5838	5837	3	0.628	1.883	0.000	-2.510	-0.000	0.000
5873	5837	5838	5841	3	0.628	1.883	0.000	-2.510	-0.000	0.000
5880	5840	5838	5839	3	0.628	1.883	0.000	-2.510	-0.000	0.000
5881	5841	5838	5840	3	0.628	1.883	0.000	-2.510	-0.000	0.000
5880	5840	5838	5841	3	0.628	1.883	0.000	-2.510	-0.000	0.000
5849	5788	5787	5848	3	0.628	1.883	0.000	-2.510	-0.000	0.000
5850	5788	5787	5847	3	0.628	1.883	0.000	-2.510	-0.000	0.000
5849	5788	5787	5847	3	0.628	1.883	0.000	-2.510	-0.000	0.000
5850	5788	5787	5848	3	0.628	1.883	0.000	-2.510	-0.000	0.000
5850	5788	5787	5786	3	-4.096	5.088	2.966	-3.958	-0.000	0.000
5849	5788	5787	5786	3	-4.096	5.088	2.966	-3.958	-0.000	0.000
5848	5787	5788	5789	3	0.979	2.937	0.000	-3.916	-0.000	0.000
5847	5787	5788	5789	3	0.979	2.937	0.000	-3.916	-0.000	0.000
5848	5787	5786	5803	3	1.172	3.515	0.000	-4.686	-0.000	0.000
5844	5785	5786	5803	3	1.172	3.515	0.000	-4.686	-0.000	0.000
5847	5787	5786	5803	3	1.172	3.515	0.000	-4.686	-0.000	0.000
5845	5785	5786	5803	3	1.172	3.515	0.000	-4.686	-0.000	0.000
5846	5785	5786	5803	3	1.172	3.515	0.000	-4.686	-0.000	0.000
5847	5787	5786	5785	3	1.172	3.515	0.000	-4.686	-0.000	0.000
5845	5785	5786	5787	3	1.172	3.515	0.000	-4.686	-0.000	0.000
5848	5787	5786	5785	3	1.172	3.515	0.000	-4.686	-0.000	0.000
5846	5785	5786	5787	3	1.172	3.515	0.000	-4.686	-0.000	0.000
5844	5785	5786	5787	3	1.172	3.515	0.000	-4.686	-0.000	0.000
5849	5788	5789	5790	3	1.590	4.770	0.000	-6.360	-0.000	0.000
5850	5788	5789	5790	3	1.590	4.770	0.000	-6.360	-0.000	0.000
5855	5798	5797	5799	3	0.0	0.0	0.0	-0.0	-0.0	0.0
5855	5798	5797	5796	3	0.0	0.0	0.0	-0.0	-0.0	0.0
5798	5797	5796	5795	3	0.0	0.0	0.0	-0.0	-0.0	0.0
5825	5826	5815	5814	3	2.874	0.582	2.092	-5.548	-0.000	0.000
5825	5826	5815	5816	3	1.046	-1.046	0.000	-0.000	-0.000	0.000
5789	5788	5787	5786	3	16.736	-16.736	0.000	-0.000	-0.000	0.000
5825	5819	5816	5815	3	1.046	-1.046	0.000	-0.000	-0.000	0.000
5825	5819	5816	5817	3	9.079	0.000	-9.079	-0.000	-0.000	0.000
5894	5893	5892	5891	3	30.334	0.000	-30.334	-0.000	-0.000	0.000
5893	5901	5902	5890	3	30.334	0.000	-30.334	-0.000	-0.000	0.000
5893	5892	5891	5890	3	30.334	0.000	-30.334	-0.000	-0.000	0.000
5914	5913	5912	5911	3	21.738	2.408	-16.966	-7.180	-0.000	0.000
5910	5909	5908	5907	3	21.738	2.408	-16.966	-7.180	-0.000	0.000
5911	5910	5909	5908	3	21.738	2.408	-16.966	-7.180	-0.000	0.000
5912	5911	5910	5909	3	21.738	2.408	-16.966	-7.180	-0.000	0.000
5913	5912	5911	5910	3	21.738	2.408	-16.966	-7.180	-0.000	0.000
5909	5908	5907	5906	3	58.576	0.000	-58.576	-0.000	-0.000	0.000
5908	5907	5906	5905	3	16.027	-4.391	-14.029	2.393	-0.000	0.000
5907	5906	5905	5904	3	30.334	0.000	-30.334	-0.000	-0.000	0.000
5916	5915	5914	5913	3	58.576	0.000	-58.576	-0.000	-0.000	0.000
5901	5893	5894	5900	3	9.079	0.000	-9.079	-0.000	-0.000	0.000
5900	5894	5893	5892	3	9.079	0.000	-9.079	-0.000	-0.000	0.000
5901	5893	5894	5895	3	9.079	0.000	-9.079	-0.000	-0.000	0.000
5895	5894	5893	5892	3	9.079	0.000	-9.079	-0.000	-0.000	0.000
5900	5894	5895	5896	3	30.334	0.000	-30.334	-0.000	-0.000	0.000
5901	5893	5892	5891	3	30.334	0.000	-30.334	-0.000	-0.000	0.000
5899	5900	5894	5893	3	30.334	0.000	-30.334	-0.000	-0.000	0.000
5902	5901	5893	5894	3	30.334	0.000	-30.334	-0.000	-0.000	0.000
5896	5895	5894	5893	3	30.334	0.000	-30.334	-0.000	-0.000	0.000
5899	5900	5894	5895	3	30.334	0.000	-30.334	-0.000	-0.000	0.000
5902	5901	5893	5892	3	30.334	0.000	-30.334	-0.000	-0.000	0.000
5942	5906	5907	5908	3	16.027	-4.391	-14.029	2.393	-0.000	0.000
5897	5899	5900	5894	3	30.334	0.000	-30.334	-0.000	-0.000	0.000
5897	5896	5895	5894	3	30.334	0.000	-30.334	-0.000	-0.000	0.000
5943	5942	5906	5907	3	30.334	0.000	-30.334	-0.000	-0.000	0.000
5932	5927	5928	5929	3	30.334	0.000	-30.334	-0.000	-0.000	0.000
5943	5942	5906	5905	3	30.334	0.000	-30.334	-0.000	-0.000	0.000
5902	5890	5891	5892	3	30.334	0.000	-30.334	-0.000	-0.000	0.000
5942	5943	5903	5904	3	30.334	0.000	-30.334	-0.000	-0.000	0.000
5932	5931	5930	5929	3	30.334	0.000	-30.334	-0.000	-0.000	0.000
5931	5930	5929	5928	3	30.334	0.000	-30.334	-0.000	-0.000	0.000
5930	5929	5928	5927	3	30.334	0.000	-30.334	-0.000	-0.000	0.000
5906	5905	5904	5903	3	30.334	0.000	-30.334	-0.000	-0.000	0.000
5906	5942	5943	5903	3	30.334	0.000	-30.334	-0.000	-0.000	0.000
5943	5903	5904	5905	3	30.334	0.000	-30.334	-0.000	-0.000	0.000
5942	5906	5905	5904	3	30.334	0.000	-30.334	-0.000	-0.000	0.000
5931	5932	5927	5928	3	30.334	0.000	-30.334	-0.000	-0.000	0.000
5900	5899	5897	5896	3	30.334	0.000	-30.334	-0.000	-0.000	0.000
5901	5902	5890	5891	3	30.334	0.000	-30.334	-0.000	-0.000	0.000
5930	5931	5932	5927	3	30.334	0.000	-30.334	-0.000	-0.000	0.000
5899	5897	5896	5895	3	30.334	0.000	-30.334	-0.000	-0.000	0.000
5931	5932	5927	5926	3	30.334	0.000	-30.334	-0.000	-0.000	0.000
5929	5928	5927	5926	3	30.334	0.000	-30.334	-0.000	-0.000	0.000
5942	5943	5903	5886	3	30.334	0.000	-30.334	-0.000	-0.000	0.000
5905	5904	5903	5886	3	30.334	0.000	-30.334	-0.000	-0.000	0.000
5900	5899	5897	5898	3	0.0	0.0	0.0	-0.0	-0.0	0.0
5892	5891	5890	5889	3	30.334	0.000	-30.334	-0.000	-0.000	0.000
5901	5902	5890	5889	3	30.334	0.000	-30.334	-0.000	-0.000	0.000
5932	5927	5926	5915	3	0.000	0.000	0.000	-0.000	-0.000	0.000
5928	5927	5926	5915	3	0.000	0.000	0.000	-0.000	-0.000	0.000
5932	5927	5926	5925	3	0.000	0.000	0.000	-0.000	-0.000	0.000
5928	5927	5926	5925	3	0.000	0.000	0.000	-0.000	-0.000	0.000
5943	5903	5886	5887	3	5.184	35.932	-14.355	-26.761	-0.000	0.000
5904	5903	5886	5887	3	5.184	35.932	-14.355	-26.761	-0.000	0.000
5904	5903	5886	5885	3	5.184	35.932	-14.355	-26.761	-0.000	0.000
5943	5903	5886	5885	3	5.184	35.932	-14.355	-26.761	-0.000	0.000
5891	5890	5889	5888	3	12.552	0.000	-12.552	-0.000	-0.000	0.000
5902	5890	5889	5888	3	12.552	0.000	-12.552	-0.000	-0.000	0.000
5927	5926	5915	5914	3	6.322	-2.485	0.707	-4.544	-0.000	0.000
5927	5926	5915	5916	3	0.527	-6.397	-1.695	7.565	-0.000	0.000
5927	5926	5925	5919	3	1.715	2.845	1.046	-5.607	-0.000	0.000
5903	5886	5887	5888	3	1.789	3.492	0.536	-5.816	-0.000	0.000
5890	5889	5888	5887	3	1.715	2.845	1.046	-5.607	-0.000	0.000
5933	5926	5927	5928	3	0.000	0.000	0.000	-0.000	-0.000	0.000
5933	5926	5927	5932	3	0.000	0.000	0.000	-0.000	-0.000	0.000
5933	5926	5915	5914	3	6.322	-2.485	0.707	-4.544	-0.000	0.000
5933	5926	5915	5916	3	0.527	-6.397	-1.695	7.565	-0.000	0.000
5933	5926	5925	5919	3	1.715	2.845	1.046	-5.607	-0.000	0.000
5915	5914	5913	5912	3	21.738	2.408	-16.966	-7.180	-0.000	0.000
5920	5919	5916	5915	3	21.738	2.408	-16.966	-7.180	-0.000	0.000
5920	5919	5916	5917	3	-0.778	-2.335	0.000	3.113	-0.000	0.000
5941	5909	5908	5907	3	58.576	0.000	-58.576	-0.000	-0.000	0.000
5937	5911	5910	5909	3	58.576	0.000	-58.576	-0.000	-0.000	0.000
5941	5909	5910	5911	3	58.576	0.000	-58.576	-0.000	-0.000	0.000
5937	5911	5912	5913	3	58.576	0.000	-58.576	-0.000	-0.000	0.000
5926	5915	5914	5913	3	-0.778	-2.335	0.000	3.113	-0.000	0.000
5926	5915	5916	5919	3	58.576	0.000	-58.576	-0.000	-0.000	0.000
5926	5915	5916	5917	3	58.576	0.000	-58.576	-0.000	-0.000	0.000
5938	5941	5909	5908	3	0.527	-6.397	-1.695	7.565	-0.000	0.000
5938	5937	5911	5912	3	0.527	-6.397	-1.695	7.565	-0.000	0.000
5938	5937	5911	5910	3	0.527	-6.397	-1.695	7.565	-0.000	0.000
5938	5941	5909	5910	3	0.527	-6.397	-1.695	7.565	-0.000	0.000
5941	5938	5937	5911	3	2.301	-1.464	0.837	-1.674	-0.000	0.000
5940	5938	5941	5909	3	2.301	-1.464	0.837	-1.674	-0.000	0.000
5937	5938	5941	5909	3	2.301	-1.464	0.837	-1.674	-0.000	0.000
5939	5938	5941	5909	3	2.301	-1.464	0.837	-1.674	-0.000	0.000
5940	5938	5937	5911	3	2.301	-1.464	0.837	-1.674	-0.000	0.000
5939	5938	5937	5911	3	2.301	-1.464	0.837	-1.674	-0.000	0.000
5888	5887	5886	5885	3	1.789	3.492	0.536	-5.816	-0.000	0.000
5926	5925	5919	5916	3	30.334	0.000	-30.334	-0.000	-0.000	0.000
5926	5925	5919	5920	3	30.334	0.000	-30.334	-0.000	-0.000	0.000
5919	5916	5915	5914	3	58.576	0.000	-58.576	-0.000	-0.000	0.000
5919	5925	5926	5915	3	1.715	2.845	1.046	-5.607	-0.000	0.000
5917	5916	5915	5914	3	58.576	0.000	-58.576	-0.000	-0.000	0.000
5921	5920	5919	5916	3	58.576	0.000	-58.576	-0.000	-0.000	0.000
5923	5920	5919	5916	3	58.576	0.000	-58.576	-0.000	-0.000	0.000
5934	5933	5926	5927	3	0.000	0.000	0.000	-0.000	-0.000	0.000
5935	5933	5926	5927	3	0.000	0.000	0.000	-0.000	-0.000	0.000
5936	5933	5926	5927	3	0.000	0.000	0.000	-0.000	-0.000	0.000
5935	5933	5926	5915	3	0.000	0.000	0.000	-0.000	-0.000	0.000
5934	5933	5926	5915	3	0.000	0.000	0.000	-0.000	-0.000	0.000
5936	5933	5926	5915	3	0.000	0.000	0.000	-0.000	-0.000	0.000
5935	5933	5926	5925	3	1.130	3.389	0.000	-4.519	-0.000	0.000
5936	5933	5926	5925	3	1.130	3.389	0.000	-4.519	-0.000	0.000
5934	5933	5926	5925	3	1.130	3.389	0.000	-4.519	-0.000	0.000
5964	5910	5909	5908	3	58.576	0.000	-58.576	-0.000	-0.000	0.000
5964	5910	5911	5912	3	58.576	0.000	-58.576	-0.000	-0.000	0.000
5964	5910	5911	5937	3	58.576	0.000	-58.576	-0.000	-0.000	0.000
5964	5910	5909	5941	3	58.576	0.000	-58.576	-0.000	-0.000	0.000
5953	5895	5894	5893	3	30.334	0.000	-30.334	-0.000	-0.000	0.000
5952	5892	5893	5894	3	30.334	0.000	-30.334	-0.000	-0.000	0.000
5958	5901	5893	5894	3	30.334	0.000	-30.334	-0.000	-0.000	0.000
5957	5900	5894	5893	3	30.334	0.000	-30.334	-0.000	-0.000	0.000
5957	5900	5894	5895	3	30.334	0.000	-30.334	-0.000	-0.000	0.000
5953	5895	5894	5900	3	30.334	0.000	-30.334	-0.000	-0.000	0.000
5952	5892	5893	5901	3	30.334	0.000	-30.334	-0.000	-0.000	0.000
5958	5901	5893	5892	3	30.334	0.000	-30.334	-0.000	-0.000	0.000
5951	5891	5892	5893	3	30.334	0.000	-30.334	-0.000	-0.000	0.000
5959	5902	5901	5893	3	30.334	0.000	-30.334	-0.000	-0.000	0.000
5954	5896	5895	5894	3	30.334	0.000	-30.334	-0.000	-0.000	0.000
5956	5899	5900	5894	3	30.334	0.000	-30.334	-0.000	-0.000	0.000
5961	5905	5906	5907	3	30.334	0.000	-30.334	-0.000	-0.000	0.000
5983	5942	5906	5907	3	30.334	0.000	-30.334	-0.000	-0.000	0.000
5968	5928	5929	5930	3	30.334	0.000	-30.334	-0.000	-0.000	0.000
5956	5899	5897	5896	3	30.334	0.000	-30.334	-0.000	-0.000	0.000
5971	5931	5930	5929	3	30.334	0.000	-30.334	-0.000	-0.000	0.000
5983	5942	5943	5903	3	30.334	0.000	-30.334	-0.000	-0.000	0.000
5969	5929	5928	5927	3	30.334	0.000	-30.334	-0.000	-0.000	0.000
5984	5943	5942	5906	3	30.334	0.000	-30.334	-0.000	-0.000	0.000
5970	5930	5929	5928	3	30.334	0.000	-30.334	-0.000	-0.000	0.000
5959	5902	5890	5891	3	30.334	0.000	-30.334	-0.000	-0.000	0.000
5958	5901	5902	5890	3	30.334	0.000	-30.334	-0.000	-0.000	0.000
5983	5942	5906	5905	3	30.334	0.000	-30.334	-0.000	-0.000	0.000
5984	5943	5903	5904	3	30.334	0.000	-30.334	-0.000	-0.000	0.000
5971	5931	5932	5927	3	30.334	0.000	-30.334	-0.000	-0.000	0.000
5968	5928	5927	5932	3	30.334	0.000	-30.334	-0.000	-0.000	0.000
5953	5895	5896	5897	3	30.334	0.000	-30.334	-0.000	-0.000	0.000
5954	5896	5897	5899	3	30.334	0.000	-30.334	-0.000	-0.000	0.000
5951	5891	5890	5902	3	30.334	0.000	-30.334	-0.000	-0.000	0.000
5960	5904	5903	5943	3	30.334	0.000	-30.334	-0.000	-0.000	0.000
5960	5904	5905	5906	3	30.334	0.000	-30.334	-0.000	-0.000	0.000
5957	5900	5899	5897	3	30.334	0.000	-30.334	-0.000	-0.000	0.000
5961	5905	5906	5942	3	30.334	0.000	-30.334	-0.000	-0.000	0.000
5970	5930	5931	5932	3	30.334	0.000	-30.334	-0.000	-0.000	0.000
5972	5932	5931	5930	3	30.334	0.000	-30.334	-0.000	-0.000	0.000
5969	5929	5930	5931	3	30.334	0.000	-30.334	-0.000	-0.000	0.000
5972	5932	5927	5928	3	30.334	0.000	-30.334	-0.000	-0.000	0.000
5952	5892	5891	5890	3	30.334	0.000	-30.334	-0.000	-0.000	0.000
5961	5905	5904	5903	3	30.334	0.000	-30.334	-0.000	-0.000	0.000
5972	5932	5927	5926	3	30.334	0.000	-30.334	-0.000	-0.000	0.000
5968	5928	5927	5926	3	30.334	0.000	-30.334	-0.000	-0.000	0.000
5961	5905	5904	5960	3	30.334	0.000	-30.334	-0.000	-0.000	0.000
5984	5943	5942	5983	3	30.334	0.000	-30.334	-0.000	-0.000	0.000
5970	5930	5929	5969	3	30.334	0.000	-30.334	-0.000	-0.000	0.000
5954	5896	5895	5953	3	30.334	0.000	-30.334	-0.000	-0.000	0.000
5959	5902	5901	5958	3	30.334	0.000	-30.334	-0.000	-0.000	0.000
5957	5900	5899	5956	3	30.334	0.000	-30.334	-0.000	-0.000	0.000
5969	5929	5928	5968	3	30.334	0.000	-30.334	-0.000	-0.000	0.000
5952	5892	5891	5951	3	30.334	0.000	-30.334	-0.000	-0.000	0.000
5971	5931	5930	5970	3	30.334	0.000	-30.334	-0.000	-0.000	0.000
5972	5932	5931	5971	3	30.334	0.000	-30.334	-0.000	-0.000	0.000
5984	5943	5903	5886	3	30.334	0.000	-30.334	-0.000	-0.000	0.000
5960	5904	5903	5886	3	30.334	0.000	-30.334	-0.000	-0.000	0.000
5954	5896	5897	5898	3	0.0	0.0	0.0	-0.0	-0.0	0.0
5956	5899	5897	5898	3	0.0	0.0	0.0	-0.0	-0.0	0.0
5951	5891	5890	5889	3	30.334	0.000	-30.334	-0.000	-0.000	0.000
5959	5902	5890	5889	3	30.334	0.000	-30.334	-0.000	-0.000	0.000
5965	5912	5911	5910	3	58.576	0.000	-58.576	-0.000	-0.000	0.000
5965	5912	5913	5914	3	58.576	0.000	-58.576	-0.000	-0.000	0.000
5967	5914	5913	5912	3	58.576	0.000	-58.576	-0.000	-0.000	0.000
5966	5913	5912	5911	3	58.576	0.000	-58.576	-0.000	-0.000	0.000
5963	5908	5909	5910	3	58.576	0.000	-58.576	-0.000	-0.000	0.000
5962	5907	5908	5909	3	58.576	0.000	-58.576	-0.000	-0.000	0.000
5963	5908	5907	5906	3	58.576	0.000	-58.576	-0.000	-0.000	0.000
5966	5913	5914	5915	3	58.576	0.000	-58.576	-0.000	-0.000	0.000
5965	5912	5911	5937	3	58.576	0.000	-58.576	-0.000	-0.000	0.000
5963	5908	5909	5941	3	58.576	0.000	-58.576	-0.000	-0.000	0.000
5963	5908	5907	5962	3	58.576	0.000	-58.576	-0.000	-0.000	0.000
5966	5913	5912	5965	3	58.576	0.000	-58.576	-0.000	-0.000	0.000
5967	5914	5913	5966	3	58.576	0.000	-58.576	-0.000	-0.000	0.000
5962	5907	5906	5942	3	-0.778	-2.335	0.000	3.113	-0.000	0.000
5962	5907	5906	5905	3	-0.778	-2.335	0.000	3.113	-0.000	0.000
5967	5914	5915	5916	3	58.576	0.000	-58.576	-0.000	-0.000	0.000
5967	5914	5915	5926	3	58.576	0.000	-58.576	-0.000	-0.000	0.000
5981	5941	5909	5908	3	-0.778	-2.335	0.000	3.113	-0.000	0.000
5981	5941	5909	5910	3	-0.778	-2.335	0.000	3.113	-0.000	0.000
5982	5941	5909	5908	3	-0.778	-2.335	0.000	3.113	-0.000	0.000
5974	5937	5911	5912	3	-0.778	-2.335	0.000	3.113	-0.000	0.000
5982	5941	5909	5910	3	-0.778	-2.335	0.000	3.113	-0.000	0.000
5973	5937	5911	5910	3	-0.778	-2.335	0.000	3.113	-0.000	0.000
5974	5937	5911	5910	3	-0.778	-2.335	0.000	3.113	-0.000	0.000
5973	5937	5911	5912	3	-0.778	-2.335	0.000	3.113	-0.000	0.000
5976	5939	5938	5941	3	0.628	1.883	0.000	-2.510	-0.000	0.000
5975	5939	5938	5940	3	0.628	1.883	0.000	-2.510	-0.000	0.000
5975	5939	5938	5937	3	0.628	1.883	0.000	-2.510	-0.000	0.000
5977	5939	5938	5940	3	0.628	1.883	0.000	-2.510	-0.000	0.000
5979	5940	5938	5937	3	0.628	1.883	0.000	-2.510	-0.000	0.000
5978	5940	5938	5937	3	0.628	1.883	0.000	-2.510	-0.000	0.000
5977	5939	5938	5937	3	0.628	1.883	0.000	-2.510	-0.000	0.000
5979	5940	5938	5939	3	0.628	1.883	0.000	-2.510	-0.000	0.000
5976	5939	5938	5937	3	0.628	1.883	0.000	-2.510	-0.000	0.000
5981	5941	5938	5937	3	0.628	1.883	0.000	-2.510	-0.000	0.000
5981	5941	5938	5939	3	0.628	1.883	0.000	-2.510	-0.000	0.000
5974	5937	5938	5939	3	0.628	1.883	0.000	-2.510	-0.000	0.000
5977	5939	5938	5941	3	0.628	1.883	0.000	-2.510	-0.000	0.000
5974	5937	5938	5940	3	0.628	1.883	0.000	-2.510	-0.000	0.000
5982	5941	5938	5939	3	0.628	1.883	0.000	-2.510	-0.000	0.000
5978	5940	5938	5941	3	0.628	1.883	0.000	-2.510	-0.000	0.000
5979	5940	5938	5941	3	0.628	1.883	0.000	-2.510	-0.000	0.000
5980	5940	5938	5937	3	0.628	1.883	0.000	-2.510	-0.000	0.000
5973	5937	5938	5940	3	0.628	1.883	0.000	-2.510	-0.000	0.000
5973	5937	5938	5939	3	0.628	1.883	0.000	-2.510	-0.000	0.000
5978	5940	5938	5939	3	0.628	1.883	0.000	-2.510	-0.000	0.000
5974	5937	5938	5941	3	0.628	1.883	0.000	-2.510	-0.000	0.000
5982	5941	5938	5940	3	0.628	1.883	0.000	-2.510	-0.000	0.000
5976	5939	5938	5940	3	0.628	1.883	0.000	-2.510	-0.000	0.000
5975	5939	5938	5941	3	0.628	1.883	0.000	-2.510	-0.000	0.000
5982	5941	5938	5937	3	0.628	1.883	0.000	-2.510	-0.000	0.000
5973	5937	5938	5941	3	0.628	1.883	0.000	-2.510	-0.000	0.000
5980	5940	5938	5939	3	0.628	1.883	0.000	-2.510	-0.000	0.000
5981	5941	5938	5940	3	0.628	1.883	0.000	-2.510	-0.000	0.000
5980	5940	5938	5941	3	0.628	1.883	0.000	-2.510	-0.000	0.000
5949	5888	5887	5948	3	0.628	1.883	0.000	-2.510	-0.000	0.000
5950	5888	5887	5947	3	0.628	1.883	0.000	-2.510	-0.000	0.000
5949	5888	5887	5947	3	0.628	1.883	0.000	-2.510	-0.000	0.000
5950	5888	5887	5948	3	0.628	1.883	0.000	-2.510	-0.000	0.000
5950	5888	5887	5886	3	-4.096	5.088	2.966	-3.958	-0.000	0.000
5949	5888	5887	5886	3	-4.096	5.088	2.966	-3.958	-0.000	0.000
5948	5887	5888	5889	3	0.979	2.937	0.000	-3.916	-0.000	0.000
5947	5887	5888	5889	3	0.979	2.937	0.000	-3.916	-0.000	0.000
5948	5887	5886	5903	3	1.172	3.515	0.000	-4.686	-0.000	0.000
5944	5885	5886	5903	3	1.172	3.515	0.000	-4.686	-0.000	0.000
5947	5887	5886	5903	3	1.172	3.515	0.000	-4.686	-0.000	0.000
5945	5885	5886	5903	3	1.172	3.515	0.000	-4.686	-0.000	0.000
5946	5885	5886	5903	3	1.172	3.515	0.000	-4.686	-0.000	0.000
5947	5887	5886	5885	3	1.172	3.515	0.000	-4.686	-0.000	0.000
5945	5885	5886	5887	3	1.172	3.515	0.000	-4.686	-0.000	0.000
5948	5887	5886	5885	3	1.172	3.515	0.000	-4.686	-0.000	0.000
5946	5885	5886	5887	3	1.172	3.515	0.000	-4.686	-0.000	0.000
5944	5885	5886	5887	3	1.172	3.515	0.000	-4.686	-0.000	0.000
5949	5888	5889	5890	3	1.590	4.770	0.000	-6.360	-0.000	0.000
5950	5888	5889	5890	3	1.590	4.770	0.000	-6.360	-0.000	0.000
5955	5898	5897	5899	3	0.0	0.0	0.0	-0.0	-0.0	0.0
5955	5898	5897	5896	3	0.0	0.0	0.0	-0.0	-0.0	0.0
5898	5897	5896	5895	3	0.0	0.0	0.0	-0.0	-0.0	0.0
5925	5926	5915	5914	3	2.874	0.582	2.092	-5.548	-0.000	0.000
5925	5926	5915	5916	3	1.046	-1.046	0.000	-0.000	-0.000	0.000
5889	5888	5887	5886	3	16.736	-16.736	0.000	-0.000	-0.000	0.000
5925	5919	5916	5915	3	1.046	-1.046	0.000	-0.000	-0.000	0.000
5925	5919	5916	5917	3	9.079	0.000	-9.079	-0.000	-0.000	0.000
5994	5993	5992	5991	3	30.334	0.000	-30.334	-0.000	-0.000	0.000
5993	6001	6002	5990	3	30.334	0.000	-30.334	-0.000	-0.000	0.000
5993	5992	5991	5990	3	30.334	0.000	-30.334	-0.000	-0.000	0.000
6014	6013	6012	6011	3	21.738	2.408	-16.966	-7.180	-0.000	0.000
6010	6009	6008	6007	3	21.738	2.408	-16.966	-7.180	-0.000	0.000
6011	6010	6009	6008	3	21.738	2.408	-16.966	-7.180	-0.000	0.000
6012	6011	6010	6009	3	21.738	2.408	-16.966	-7.180	-0.000	0.000
6013	6012	6011	6010	3	21.738	2.408	-16.966	-7.180	-0.000	0.000
6009	6008	6007	6006	3	58.576	0.000	-58.576	-0.000	-0.000	0.000
6008	6007	6006	6005	3	16.027	-4.391	-14.029	2.393	-0.000	0.000
6007	6006	6005	6004	3	30.334	0.000	-30.334	-0.000	-0.000	0.000
6016	6015	6014	6013	3	58.576	0.000	-58.576	-0.000	-0.000	0.000
6001	5993	5994	6000	3	9.079	0.000	-9.079	-0.000	-0.000	0.000
6000	5994	5993	5992	3	9.079	0.000	-9.079	-0.000	-0.000	0.000
6001	5993	5994	5995	3	9.079	0.000	-9.079	-0.000	-0.000	0.000
5995	5994	5993	5992	3	9.079	0.000	-9.079	-0.000	-0.000	0.000
6000	5994	5995	5996	3	30.334	0.000	-30.334	-0.000	-0.000	0.000
6001	5993	5992	5991	3	30.334	0.000	-30.334	-0.000	-0.000	0.000
5999	6000	5994	5993	3	30.334	0.000	-30.334	-0.000	-0.000	0.000
6002	6001	5993	5994	3	30.334	0.000	-30.334	-0.000	-0.000	0.000
5996	5995	5994	5993	3	30.334	0.000	-30.334	-0.000	-0.000	0.000
5999	6000	5994	5995	3	30.334	0.000	-30.334	-0.000	-0.000	0.000
6002	6001	5993	5992	3	30.334	0.000	-30.334	-0.000	-0.000	0.000
6042	6006	6007	6008	3	16.027	-4.391	-14.029	2.393	-0.000	0.000
5997	5999	6000	5994	3	30.334	0.000	-30.334	-0.000	-0.000	0.000
5997	5996	5995	5994	3	30.334	0.000	-30.334	-0.000	-0.000	0.000
6043	6042	6006	6007	3	30.334	0.000	-30.334	-0.000	-0.000	0.000
6032	6027	6028	6029	3	30.334	0.000	-30.334	-0.000	-0.000	0.000
6043	6042	6006	6005	3	30.334	0.000	-30.334	-0.000	-0.000	0.000
6002	5990	5991	5992	3	30.334	0.000	-30.334	-0.000	-0.000	0.000
6042	6043	6003	6004	3	30.334	0.000	-30.334	-0.000	-0.000	0.000
6032	6031	6030	6029	3	30.334	0.000	-30.334	-0.000	-0.000	0.000
6031	6030	6029	6028	3	30.334	0.000	-30.334	-0.000	-0.000	0.000
6030	6029	6028	6027	3	30.334	0.000	-30.334	-0.000	-0.000	0.000
6006	6005	6004	6003	3	30.334	0.000	-30.334	-0.000	-0.000	0.000
6006	6042	6043	6003	3	30.334	0.000	-30.334	-0.000	-0.000	0.000
6043	6003	6004	6005	3	30.334	0.000	-30.334	-0.000	-0.000	0.000
6042	6006	6005	6004	3	30.334	0.000	-30.334	-0.000	-0.000	0.000
6031	6032	6027	6028	3	30.334	0.000	-30.334	-0.000	-0.000	0.000
6000	5999	5997	5996	3	30.334	0.000	-30.334	-0.000	-0.000	0.000
6001	6002	5990	5991	3	30.334	0.000	-30.334	-0.000	-0.000	0.000
6030	6031	6032	6027	3	30.334	0.000	-30.334	-0.000	-0.000	0.000
5999	5997	5996	5995	3	30.334	0.000	-30.334	-0.000	-0.000	0.000
6031	6032	6027	6026	3	30.334	0.000	-30.334	-0.000	-0.000	0.000
6029	6028	6027	6026	3	30.334	0.000	-30.334	-0.000	-0.000	0.000
6042	6043	6003	5986	3	30.334	0.000	-30.334	-0.000	-0.000	0.000
6005	6004	6003	5986	3	30.334	0.000	-30.334	-0.000	-0.000	0.000
6000	5999	5997	5998	3	0.0	0.0	0.0	-0.0	-0.0	0.0
5992	5991	5990	5989	3	30.334	0.000	-30.334	-0.000	-0.000	0.000
6001	6002	5990	5989	3	30.334	0.000	-30.334	-0.000	-0.000	0.000
6032	6027	6026	6015	3	0.000	0.000	0.000	-0.000	-0.000	0.000
6028	6027	6026	6015	3	0.000	0.000	0.000	-0.000	-0.000	0.000
6032	6027	6026	6025	3	0.000	0.000	0.000	-0.000	-0.000	0.000
6028	6027	6026	6025	3	0.000	0.000	0.000	-0.000	-0.000	0.000
6043	6003	5986	5987	3	5.184	35.932	-14.355	-26.761	-0.000	0.000
6004	6003	5986	5987	3	5.184	35.932	-14.355	-26.761	-0.000	0.000
6004	6003	5986	5985	3	5.184	35.932	-14.355	-26.761	-0.000	0.000
6043	6003	5986	5985	3	5.184	35.932	-14.355	-26.761	-0.000	0.000
5991	5990	5989	5988	3	12.552	0.000	-12.552	-0.000	-0.000	0.000
6002	5990	5989	5988	3	12.552	0.000	-12.552	-0.000	-0.000	0.000
6027	6026	6015	6014	3	6.322	-2.485	0.707	-4.544	-0.000	0.000
6027	6026	6015	6016	3	0.527	-6.397	-1.695	7.565	-0.000	0.000
6027	6026	6025	6019	3	1.715	2.845	1.046	-5.607	-0.000	0.000
6003	5986	5987	5988	3	1.789	3.492	0.536	-5.816	-0.000	0.000
5990	5989	5988	5987	3	1.715	2.845	1.046	-5.607	-0.000	0.000
6033	6026	6027	6028	3	0.000	0.000	0.000	-0.000	-0.000	0.000
6033	6026	6027	6032	3	0.000	0.000	0.000	-0.000	-0.000	0.000
6033	6026	6015	6014	3	6.322	-2.485	0.707	-4.544	-0.000	0.000
6033	6026	6015	6016	3	0.527	-6.397	-1.695	7.565	-0.000	0.000
6033	6026	6025	6019	3	1.715	2.845	1.046	-5.607	-0.000	0.000
6015	6014	6013	6012	3	21.738	2.408	-16.966	-7.180	-0.000	0.000
6020	6019	6016	6015	3	21.738	2.408	-16.966	-7.180	-0.000	0.000
6020	6019	6016	6017	3	-0.778	-2.335	0.000	3.113	-0.000	0.000
6041	6009	6008	6007	3	58.576	0.000	-58.576	-0.000	-0.000	0.000
6037	6011	6010	6009	3	58.576	0.000	-58.576	-0.000	-0.000	0.000
6041	6009	6010	6011	3	58.576	0.000	-58.576	-0.000	-0.000	0.000
6037	6011	6012	6013	3	58.576	0.000	-58.576	-0.000	-0.000	0.000
6026	6015	6014	6013	3	-0.778	-2.335	0.000	3.113	-0.000	0.000
6026	6015	6016	6019	3	58.576	0.000	-58.576	-0.000	-0.000	0.000
6026	6015	6016	6017	3	58.576	0.000	-58.576	-0.000	-0.000	0.000
6038	6041	6009	6008	3	0.527	-6.397	-1.695	7.565	-0.000	0.000
6038	6037	6011	6012	3	0.527	-6.397	-1.695	7.565	-0.000	0.000
6038	6037	6011	6010	3	0.527	-6.397	-1.695	7.565	-0.000	0.000
6038	6041	6009	6010	3	0.527	-6.397	-1.695	7.565	-0.000	0.000
6041	6038	6037	6011	3	2.301	-1.464	0.837	-1.674	-0.000	0.000
6040	6038	6041	6009	3	2.301	-1.464	0.837	-1.674	-0.000	0.000
6037	6038	6041	6009	3	2.301	-1.464	0.837	-1.674	-0.000	0.000
6039	6038	6041	6009	3	2.301	-1.464	0.837	-1.674	-0.000	0.000
6040	6038	6037	6011	3	2.301	-1.464	0.837	-1.674	-0.000	0.000
6039	6038	6037	6011	3	2.301	-1.464	0.837	-1.674	-0.000	0.000
5988	5987	5986	5985	3	1.789	3.492	0.536	-5.816	-0.000	0.000
6026	6025	6019	6016	3	30.334	0.000	-30.334	-0.000	-0.000	0.000
6026	6025	6019	6020	3	30.334	0.000	-30.334	-0.000	-0.000	0.000
6019	6016	6015	6014	3	58.576	0.000	-58.576	-0.000	-0.000	0.000
6019	6025	6026	6015	3	1.715	2.845	1.046	-5.607	-0.000	0.000
6017	6016	6015	6014	3	58.576	0.000	-58.576	-0.000	-0.000	0.000
6021	6020	6019	6016	3	58.576	0.000	-58.576	-0.000	-0.000	0.000
6023	6020	6019	6016	3	58.576	0.000	-58.576	-0.000	-0.000	0.000
6034	6033	6026	6027	3	0.000	0.000	0.000	-0.000	-0.000	0.000
6035	6033	6026	6027	3	0.000	0.000	0.000	-0.000	-0.000	0.000
6036	6033	6026	6027	3	0.000	0.000	0.000	-0.000	-0.000	0.000
6035	6033	6026	6015	3	0.000	0.000	0.000	-0.000	-0.000	0.000
6034	6033	6026	6015	3	0.000	0.000	0.000	-0.000	-0.000	0.000
6036	6033	6026	6015	3	0.000	0.000	0.000	-0.000	-0.000	0.000
6035	6033	6026	6025	3	1.130	3.389	0.000	-4.519	-0.000	0.000
6036	6033	6026	6025	3	1.130	3.389	0.000	-4.519	-0.000	0.000
6034	6033	6026	6025	3	1.130	3.389	0.000	-4.519	-0.000	0.000
6064	6010	6009	6008	3	58.576	0.000	-58.576	-0.000	-0.000	0.000
6064	6010	6011	6012	3	58.576	0.000	-58.576	-0.000	-0.000	0.000
6064	6010	6011	6037	3	58.576	0.000	-58.576	-0.000	-0.000	0.000
6064	6010	6009	6041	3	58.576	0.000	-58.576	-0.000	-0.000	0.000
6053	5995	5994	5993	3	30.334	0.000	-30.334	-0.000	-0.000	0.000
6052	5992	5993	5994	3	30.334	0.000	-30.334	-0.000	-0.000	0.000
6058	6001	5993	5994	3	30.334	0.000	-30.334	-0.000	-0.000	0.000
6057	6000	5994	5993	3	30.334	0.000	-30.334	-0.000	-0.000	0.000
6057	6000	5994	5995	3	30.334	0.000	-30.334	-0.000	-0.000	0.000
6053	5995	5994	6000	3	30.334	0.000	-30.334	-0.000	-0.000	0.000
6052	5992	5993	6001	3	30.334	0.000	-30.334	-0.000	-0.000	0.000
6058	6001	5993	5992	3	30.334	0.000	-30.334	-0.000	-0.000	0.000
6051	5991	5992	5993	3	30.334	0.000	-30.334	-0.000	-0.000	0.000
6059	6002	6001	5993	3	30.334	0.000	-30.334	-0.000	-0.000	0.000
6054	5996	5995	5994	3	30.334	0.000	-30.334	-0.000	-0.000	0.000
6056	5999	6000	5994	3	30.334	0.000	-30.334	-0.000	-0.000	0.000
6061	6005	6006	6007	3	30.334	0.000	-30.334	-0.000	-0.000	0.000
6083	6042	6006	6007	3	30.334	0.000	-30.334	-0.000	-0.000	0.000
6068	6028	6029	6030	3	30.334	0.000	-30.334	-0.000	-0.000	0.000
6056	5999	5997	5996	3	30.334	0.000	-30.334	-0.000	-0.000	0.000
6071	6031	6030	6029	3	30.334	0.000	-30.334	-0.000	-0.000	0.000
6083	6042	6043	6003	3	30.334	0.000	-30.334	-0.000	-0.000	0.000
6069	6029	6028	6027	3	30.334	0.000	-30.334	-0.000	-0.000	0.000
6084	6043	6042	6006	3	30.334	0.000	-30.334	-0.000	-0.000	0.000
6070	6030	6029	6028	3	30.334	0.000	-30.334	-0.000	-0.000	0.000
6059	6002	5990	5991	3	30.334	0.000	-30.334	-0.000	-0.000	0.000
6058	6001	6002	5990	3	30.334	0.000	-30.334	-0.000	-0.000	0.000
6083	6042	6006	6005	3	30.334	0.000	-30.334	-0.000	-0.000	0.000
6084	6043	6003	6004	3	30.334	0.000	-30.334	-0.000	-0.000	0.000
6071	6031	6032	6027	3	30.334	0.000	-30.334	-0.000	-0.000	0.000
6068	6028	6027	6032	3	30.334	0.000	-30.334	-0.000	-0.000	0.000
6053	5995	5996	5997	3	30.334	0.000	-30.334	-0.000	-0.000	0.000
6054	5996	5997	5999	3	30.334	0.000	-30.334	-0.000	-0.000	0.000
6051	5991	5990	6002	3	30.334	0.000	-30.334	-0.000	-0.000	0.000
6060	6004	6003	6043	3	30.334	0.000	-30.334	-0.000	-0.000	0.000
6060	6004	6005	6006	3	30.334	0.000	-30.334	-0.000	-0.000	0.000
6057	6000	5999	5997	3	30.334	0.000	-30.334	-0.000	-0.000	0.000
6061	6005	6006	6042	3	30.334	0.000	-30.334	-0.000	-0.000	0.000
6070	6030	6031	6032	3	30.334	0.000	-30.334	-0.000	-0.000	0.000
6072	6032	6031	6030	3	30.334	0.000	-30.334	-0.000	-0.000	0.000
6069	6029	6030	6031	3	30.334	0.000	-30.334	-0.000	-0.000	0.000
6072	6032	6027	6028	3	30.334	0.000	-30.334	-0.000	-0.000	0.000
6052	5992	5991	5990	3	30.334	0.000	-30.334	-0.000	-0.000	0.000
6061	6005	6004	6003	3	30.334	0.000	-30.334	-0.000	-0.000	0.000
6072	6032	6027	6026	3	30.334	0.000	-30.334	-0.000	-0.000	0.000
6068	6028	6027	6026	3	30.334	0.000	-30.334	-0.000	-0.000	0.000
6061	6005	6004	6060	3	30.334	0.000	-30.334	-0.000	-0.000	0.000
6084	6043	6042	6083	3	30.334	0.000	-30.334	-0.000	-0.000	0.000
6070	6030	6029	6069	3	30.334	0.000	-30.334	-0.000	-0.000	0.000
6054	5996	5995	6053	3	30.334	0.000	-30.334	-0.000	-0.000	0.000
6059	6002	6001	6058	3	30.334	0.000	-30.334	-0.000	-0.000	0.000
6057	6000	5999	6056	3	30.334	0.000	-30.334	-0.000	-0.000	0.000
6069	6029	6028	6068	3	30.334	0.000	-30.334	-0.000	-0.000	0.000
6052	5992	5991	6051	3	30.334	0.000	-30.334	-0.000	-0.000	0.000
6071	6031	6030	6070	3	30.334	0.000	-30.334	-0.000	-0.000	0.000
6072	6032	6031	6071	3	30.334	0.000	-30.334	-0.000	-0.000	0.000
6084	6043	6003	5986	3	30.334	0.000	-30.334	-0.000	-0.000	0.000
6060	6004	6003	5986	3	30.334	0.000	-30.334	-0.000	-0.000	0.000
6054	5996	5997	5998	3	0.0	0.0	0.0	-0.0	-0.0	0.0
6056	5999	5997	5998	3	0.0	0.0	0.0	-0.0	-0.0	0.0
6051	5991	5990	5989	3	30.334	0.000	-30.334	-0.000	-0.000	0.000
6059	6002	5990	5989	3	30.334	0.000	-30.334	-0.000	-0.000	0.000
6065	6012	6011	6010	3	58.576	0.000	-58.576	-0.000	-0.000	0.000
6065	6012	6013	6014	3	58.576	0.000	-58.576	-0.000	-0.000	0.000
6067	6014	6013	6012	3	58.576	0.000	-58.576	-0.000	-0.000	0.000
6066	6013	6012	6011	3	58.576	0.000	-58.576	-0.000	-0.000	0.000
6063	6008	6009	6010	3	58.576	0.000	-58.576	-0.000	-0.000	0.000
6062	6007	6008	6009	3	58.576	0.000	-58.576	-0.000	-0.000	0.000
6063	6008	6007	6006	3	58.576	0.000	-58.576	-0.000	-0.000	0.000
6066	6013	6014	6015	3	58.576	0.000	-58.576	-0.000	-0.000	0.000
6065	6012	6011	6037	3	58.576	0.000	-58.576	-0.000	-0.000	0.000
6063	6008	6009	6041	3	58.576	0.000	-58.576	-0.000	-0.000	0.000
6063	6008	6007	6062	3	58.576	0.000	-58.576	-0.000	-0.000	0.000
6066	6013	6012	6065	3	58.576	0.000	-58.576	-0.000	-0.000	0.000
6067	6014	6013	6066	3	58.576	0.000	-58.576	-0.000	-0.000	0.000
6062	6007	6006	6042	3	-0.778	-2.335	0.000	3.113	-0.000	0.000
6062	6007	6006	6005	3	-0.778	-2.335	0.000	3.113	-0.000	0.000
6067	6014	6015	6016	3	58.576	0.000	-58.576	-0.000	-0.000	0.000
6067	6014	6015	6026	3	58.576	0.000	-58.576	-0.000	-0.000	0.000
6081	6041	6009	6008	3	-0.778	-2.335	0.000	3.113	-0.000	0.000
6081	6041	6009	6010	3	-0.778	-2.335	0.000	3.113	-0.000	0.000
6082	6041	6009	6008	3	-0.778	-2.335	0.000	3.113	-0.000	0.000
6074	6037	6011	6012	3	-0.778	-2.335	0.000	3.113	-0.000	0.000
6082	6041	6009	6010	3	-0.778	-2.335	0.000	3.113	-0.000	0.000
6073	6037	6011	6010	3	-0.778	-2.335	0.000	3.113	-0.000	0.000
6074	6037	6011	6010	3	-0.778	-2.335	0.000	3.113	-0.000	0.000
6073	6037	6011	6012	3	-0.778	-2.335	0.000	3.113	-0.000	0.000
6076	6039	6038	6041	3	0.628	1.883	0.000	-2.510	-0.000	0.000
6075	6039	6038	6040	3	0.628	1.883	0.000	-2.510	-0.000	0.000
6075	6039	6038	6037	3	0.628	1.883	0.000	-2.510	-0.000	0.000
6077	6039	6038	6040	3	0.628	1.883	0.000	-2.510	-0.000	0.000
6079	6040	6038	6037	3	0.628	1.883	0.000	-2.510	-0.000	0.000
6078	6040	6038	6037	3	0.628	1.883	0.000	-2.510	-0.000	0.000
6077	6039	6038	6037	3	0.628	1.883	0.000	-2.510	-0.000	0.000
6079	6040	6038	6039	3	0.628	1.883	0.000	-2.510	-0.000	0.000
6076	6039	6038	6037	3	0.628	1.883	0.000	-2.510	-0.000	0.000
6081	6041	6038	6037	3	0.628	1.883	0.000	-2.510	-0.000	0.000
6081	6041	6038	6039	3	0.628	1.883	0.000	-2.510	-0.000	0.000
6074	6037	6038	6039	3	0.628	1.883	0.000	-2.510	-0.000	0.000
6077	6039	6038	6041	3	0.628	1.883	0.000	-2.510	-0.000	0.000
6074	6037	6038	6040	3	0.628	1.883	0.000	-2.510	-0.000	0.000
6082	6041	6038	6039	3	0.628	1.883	0.000	-2.510	-0.000	0.000
6078	6040	6038	6041	3	0.628	1.883	0.000	-2.510	-0.000	0.000
6079	6040	6038	6041	3	0.628	1.883	0.000	-2.510	-0.000	0.000
6080	6040	6038	6037	3	0.628	1.883	0.000	-2.510	-0.000	0.000
6073	6037	6038	6040	3	0.628	1.883	0.000	-2.510	-0.000	0.000
6073	6037	6038	6039	3	0.628	1.883	0.000	-2.510	-0.000	0.000
6078	6040	6038	6039	3	0.628	1.883	0.000	-2.510	-0.000	0.000
6074	6037	6038	6041	3	0.628	1.883	0.000	-2.510	-0.000	0.000
6082	6041	6038	6040	3	0.628	1.883	0.000	-2.510	-0.000	0.000
6076	6039	6038	6040	3	0.628	1.883	0.000	-2.510	-0.000	0.000
6075	6039	6038	6041	3	0.628	1.883	0.000	-2.510	-0.000	0.000
6082	6041	6038	6037	3	0.628	1.883	0.000	-2.510	-0.000	0.000
6073	6037	6038	6041	3	0.628	1.883	0.000	-2.510	-0.000	0.000
6080	6040	6038	6039	3	0.628	1.883	0.000	-2.510	-0.000	0.000
6081	6041	6038	6040	3	0.628	1.883	0.000	-2.510	-0.000	0.000
6080	6040	6038	6041	3	0.628	1.883	0.000	-2.510	-0.000	0.000
6049	5988	5987	6048	3	0.628	1.883	0.000	-2.510	-0.000	0.000
6050	5988	5987	6047	3	0.628	1.883	0.000	-2.510	-0.000	0.000
6049	5988	5987	6047	3	0.628	1.883	0.000	-2.510	-0.000	0.000
6050	5988	5987	6048	3	0.628	1.883	0.000	-2.510	-0.000	0.000
6050	5988	5987	5986	3	-4.096	5.088	2.966	-3.958	-0.000	0.000
6049	5988	5987	5986	3	-4.096	5.088	2.966	-3.958	-0.000	0.000
6048	5987	5988	5989	3	0.979	2.937	0.000	-3.916	-0.000	0.000
6047	5987	5988	5989	3	0.979	2.937	0.000	-3.916	-0.000	0.000
6048	5987	5986	6003	3	1.172	3.515	0.000	-4.686	-0.000	0.000
6044	5985	5986	6003	3	1.172	3.515	0.000	-4.686	-0.000	0.000
6047	5987	5986	6003	3	1.172	3.515	0.000	-4.686	-0.000	0.000
6045	5985	5986	6003	3	1.172	3.515	0.000	-4.686	-0.000	0.000
6046	5985	5986	6003	3	1.172	3.515	0.000	-4.686	-0.000	0.000
6047	5987	5986	5985	3	1.172	3.515	0.000	-4.686	-0.000	0.000
6045	5985	5986	5987	3	1.172	3.515	0.000	-4.686	-0.000	0.000
6048	5987	5986	5985	3	1.172	3.515	0.000	-4.686	-0.000	0.000
6046	5985	5986	5987	3	1.172	3.515	0.000	-4.686	-0.000	0.000
6044	5985	5986	5987	3	1.172	3.515	0.000	-4.686	-0.000	0.000
6049	5988	5989	5990	3	1.590	4.770	0.000	-6.360	-0.000	0.000
6050	5988	5989	5990	3	1.590	4.770	0.000	-6.360	-0.000	0.000
6055	5998	5997	5999	3	0.0	0.0	0.0	-0.0	-0.0	0.0
6055	5998	5997	5996	3	0.0	0.0	0.0	-0.0	-0.0	0.0
5998	5997	5996	5995	3	0.0	0.0	0.0	-0.0	-0.0	0.0
6025	6026	6015	6014	3	2.874	0.582	2.092	-5.548	-0.000	0.000
6025	6026	6015	6016	3	1.046	-1.046	0.000	-0.000	-0.000	0.000
5989	5988	5987	5986	3	16.736	-16.736	0.000	-0.000	-0.000	0.000
6025	6019	6016	6015	3	1.046	-1.046	0.000	-0.000	-0.000	0.000
6025	6019	6016	6017	3	9.079	0.000	-9.079	-0.000	-0.000	0.000
6094	6093	6092	6091	3	30.334	0.000	-30.334	-0.000	-0.000	0.000
6093	6101	6102	6090	3	30.334	0.000	-30.334	-0.000	-0.000	0.000
6093	6092	6091	6090	3	30.334	0.000	-30.334	-0.000	-0.000	0.000
6114	6113	6112	6111	3	21.738	2.408	-16.966	-7.180	-0.000	0.000
6110	6109	6108	6107	3	21.738	2.408	-16.966	-7.180	-0.000	0.000
6111	6110	6109	6108	3	21.738	2.408	-16.966	-7.180	-0.000	0.000
6112	6111	6110	6109	3	21.738	2.408	-16.966	-7.180	-0.000	0.000
6113	6112	6111	6110	3	21.738	2.408	-16.966	-7.180	-0.000	0.000
6109	6108	6107	6106	3	58.576	0.000	-58.576	-0.000	-0.000	0.000
6108	6107	6106	6105	3	16.027	-4.391	-14.029	2.393	-0.000	0.000
6107	6106	6105	6104	3	30.334	0.000	-30.334	-0.000	-0.000	0.000
6116	6115	6114	6113	3	58.576	0.000	-58.576	-0.000	-0.000	0.000
6101	6093	6094	6100	3	9.079	0.000	-9.079	-0.000	-0.000	0.000
6100	6094	6093	6092	3	9.079	0.000	-9.079	-0.000	-0.000	0.000
6101	6093	6094	6095	3	9.079	0.000	-9.079	-0.000	-0.000	0.000
6095	6094	6093	6092	3	9.079	0.000	-9.079	-0.000	-0.000	0.000
6100	6094	6095	6096	3	30.334	0.000	-30.334	-0.000	-0.000	0.000
6101	6093	6092	6091	3	30.334	0.000	-30.334	-0.000	-0.000	0.000
6099	6100	6094	6093	3	30.334	0.000	-30.334	-0.000	-0.000	0.000
6102	6101	6093	6094	3	30.334	0.000	-30.334	-0.000	-0.000	0.000
6096	6095	6094	6093	3	30.334	0.000	-30.334	-0.000	-0.000	0.000
6099	6100	6094	6095	3	30.334	0.000	-30.334	-0.000	-0.000	0.000
6102	6101	6093	6092	3	30.334	0.000	-30.334	-0.000	-0.000	0.000
6142	6106	6107	6108	3	16.027	-4.391	-14.029	2.393	-0.000	0.000
6097	6099	6100	6094	3	30.334	0.000	-30.334	-0.000	-0.000	0.000
6097	6096	6095	6094	3	30.334	0.000	-30.334	-0.000	-0.000	0.000
6143	6142	6106	6107	3	30.334	0.000	-30.334	-0.000	-0.000	0.000
6132	6127	6128	6129	3	30.334	0.000	-30.334	-0.000	-0.000	0.000
6143	6142	6106	6105	3	30.334	0.000	-30.334	-0.000	-0.000	0.000
6102	6090	6091	6092	3	30.334	0.000	-30.334	-0.000	-0.000	0.000
6142	6143	6103	6104	3	30.334	0.000	-30.334	-0.000	-0.000	0.000
6132	6131	6130	6129	3	30.334	0.000	-30.334	-0.000	-0.000	0.000
6131	6130	6129	6128	3	30.334	0.000	-30.334	-0.000	-0.000	0.000
6130	6129	6128	6127	3	30.334	0.000	-30.334	-0.000	-0.000	0.000
6106	6105	6104	6103	3	30.334	0.000	-30.334	-0.000	-0.000	0.000
6106	6142	6143	6103	3	30.334	0.000	-30.334	-0.000	-0.000	0.000
6143	6103	6104	6105	3	30.334	0.000	-30.334	-0.000	-0.000	0.000
6142	6106	6105	6104	3	30.334	0.000	-30.334	-0.000	-0.000	0.000
6131	6132	6127	6128	3	30.334	0.000	-30.334	-0.000	-0.000	0.000
6100	6099	6097	6096	3	30.334	0.000	-30.334	-0.000	-0.000	0.000
6101	6102	6090	6091	3	30.334	0.000	-30.334	-0.000	-0.000	0.000
6130	6131	6132	6127	3	30.334	0.000	-30.334	-0.000	-0.000	0.000
6099	6097	6096	6095	3	30.334	0.000	-30.334	-0.000	-0.000	0.000
6131	6132	6127	6126	3	30.334	0.000	-30.334	-0.000	-0.000	0.000
6129	6128	6127	6126	3	30.334	0.000	-30.334	-0.000	-0.000	0.000
6142	6143	6103	6086	3	30.334	0.000	-30.334	-0.000	-0.000	0.000
6105	6104	6103	6086	3	30.334	0.000	-30.334	-0.000	-0.000	0.000
6100	6099	6097	6098	3	0.0	0.0	0.0	-0.0	-0.0	0.0
6092	6091	6090	6089	3	30.334	0.000	-30.334	-0.000	-0.000	0.000
6101	6102	6090	6089	3	30.334	0.000	-30.334	-0.000	-0.000	0.000
6132	6127	6126	6115	3	0.000	0.000	0.000	-0.000	-0.000	0.000
6128	6127	6126	6115	3	0.000	0.000	0.000	-0.000	-0.000	0.000
6132	6127	6126	6125	3	0.000	0.000	0.000	-0.000	-0.000	0.000
6128	6127	6126	6125	3	0.000	0.000	0.000	-0.000	-0.000	0.000
6143	6103	6086	6087	3	5.184	35.932	-14.355	-26.761	-0.000	0.000
6104	6103	6086	6087	3	5.184	35.932	-14.355	-26.761	-0.000	0.000
6104	6103	6086	6085	3	5.184	35.932	-14.355	-26.761	-0.000	0.000
6143	6103	6086	6085	3	5.184	35.932	-14.355	-26.761	-0.000	0.000
6091	6090	6089	6088	3	12.552	0.000	-12.552	-0.000	-0.000	0.000
6102	6090	6089	6088	3	12.552	0.000	-12.552	-0.000	-0.000	0.000
6127	6126	6115	6114	3	6.322	-2.485	0.707	-4.544	-0.000	0.000
6127	6126	6115	6116	3	0.527	-6.397	-1.695	7.565	-0.000	0.000
6127	6126	6125	6119	3	1.715	2.845	1.046	-5.607	-0.000	0.000
6103	6086	6087	6088	3	1.789	3.492	0.536	-5.816	-0.000	0.000
6090	6089	6088	6087	3	1.715	2.845	1.046	-5.607	-0.000	0.000
6133	6126	6127	6128	3	0.000	0.000	0.000	-0.000	-0.000	0.000
6133	6126	6127	6132	3	0.000	0.000	0.000	-0.000	-0.000	0.000
6133	6126	6115	6114	3	6.322	-2.485	0.707	-4.544	-0.000	0.000
6133	6126	6115	6116	3	0.527	-6.397	-1.695	7.565	-0.000	0.000
6133	6126	6125	6119	3	1.715	2.845	1.046	-5.607	-0.000	0.000
6115	6114	6113	6112	3	21.738	2.408	-16.966	-7.180	-0.000	0.000
6120	6119	6116	6115	3	21.738	2.408	-16.966	-7.180	-0.000	0.000
6120	6119	6116	6117	3	-0.778	-2.335	0.000	3.113	-0.000	0.000
6141	6109	6108	6107	3	58.576	0.000	-58.576	-0.000	-0.000	0.000
6137	6111	6110	6109	3	58.576	0.000	-58.576	-0.000	-0.000	0.000
6141	6109	6110	6111	3	58.576	0.000	-58.576	-0.000	-0.000	0.000
6137	6111	6112	6113	3	58.576	0.000	-58.576	-0.000	-0.000	0.000
6126	6115	6114	6113	3	-0.778	-2.335	0.000	3.113	-0.000	0.000
6126	6115	6116	6119	3	58.576	0.000	-58.576	-0.000	-0.000	0.000
6126	6115	6116	6117	3	58.576	0.000	-58.576	-0.000	-0.000	0.000
6138	6141	6109	6108	3	0.527	-6.397	-1.695	7.565	-0.000	0.000
6138	6137	6111	6112	3	0.527	-6.397	-1.695	7.565	-0.000	0.000
6138	6137	6111	6110	3	0.527	-6.397	-1.695	7.565	-0.000	0.000
6138	6141	6109	6110	3	0.527	-6.397	-1.695	7.565	-0.000	0.000
6141	6138	6137	6111	3	2.301	-1.464	0.837	-1.674	-0.000	0.000
6140	6138	6141	6109	3	2.301	-1.464	0.837	-1.674	-0.000	0.000
6137	6138	6141	6109	3	2.301	-1.464	0.837	-1.674	-0.000	0.000
6139	6138	6141	6109	3	2.301	-1.464	0.837	-1.674	-0.000	0.000
6140	6138	6137	6111	3	2.301	-1.464	0.837	-1.674	-0.000	0.000
6139	6138	6137	6111	3	2.301	-1.464	0.837	-1.674	-0.000	0.000
6088	6087	6086	6085	3	1.789	3.492	0.536	-5.816	-0.000	0.000
6126	6125	6119	6116	3	30.334	0.000	-30.334	-0.000	-0.000	0.000
6126	6125	6119	6120	3	30.334	0.000	-30.334	-0.000	-0.000	0.000
6119	6116	6115	6114	3	58.576	0.000	-58.576	-0.000	-0.000	0.000
6119	6125	6126	6115	3	1.715	2.845	1.046	-5.607	-0.000	0.000
6117	6116	6115	6114	3	58.576	0.000	-58.576	-0.000	-0.000	0.000
6121	6120	6119	6116	3	58.576	0.000	-58.576	-0.000	-0.000	0.000
6123	6120	6119	6116	3	58.576	0.000	-58.576	-0.000	-0.000	0.000
6134	6133	6126	6127	3	0.000	0.000	0.000	-0.000	-0.000	0.000
6135	6133	6126	6127	3	0.000	0.000	0.000	-0.000	-0.000	0.000
6136	6133	6126	6127	3	0.000	0.000	0.000	-0.000	-0.000	0.000
6135	6133	6126	6115	3	0.000	0.000	0.000	-0.000	-0.000	0.000
6134	6133	6126	6115	3	0.000	0.000	0.000	-0.000	-0.000	0.000
6136	6133	6126	6115	3	0.000	0.000	0.000	-0.000	-0.000	0.000
6135	6133	6126	6125	3	1.130	3.389	0.000	-4.519	-0.000	0.000
6136	6133	6126	6125	3	1.130	3.389	0.000	-4.519	-0.000	0.000
6134	6133	6126	6125	3	1.130	3.389	0.000	-4.519	-0.000	0.000
6164	6110	6109	6108	3	58.576	0.000	-58.576	-0.000	-0.000	0.000
6164	6110	6111	6112	3	58.576	0.000	-58.576	-0.000	-0.000	0.000
6164	6110	6111	6137	3	58.576	0.000	-58.576	-0.000	-0.000	0.000
6164	6110	6109	6141	3	58.576	0.000	-58.576	-0.000	-0.000	0.000
6153	6095	6094	6093	3	30.334	0.000	-30.334	-0.000	-0.000	0.000
6152	6092	6093	6094	3	30.334	0.000	-30.334	-0.000	-0.000	0.000
6158	6101	6093	6094	3	30.334	0.000	-30.334	-0.000	-0.000	0.000
6157	6100	6094	6093	3	30.334	0.000	-30.334	-0.000	-0.000	0.000
6157	6100	6094	6095	3	30.334	0.000	-30.334	-0.000	-0.000	0.000
6153	6095	6094	6100	3	30.334	0.000	-30.334	-0.000	-0.000	0.000
6152	6092	6093	6101	3	30.334	0.000	-30.334	-0.000	-0.000	0.000
6158	6101	6093	6092	3	30.334	0.000	-30.334	-0.000	-0.000	0.000
6151	6091	6092	6093	3	30.334	0.000	-30.334	-0.000	-0.000	0.000
6159	6102	6101	6093	3	30.334	0.000	-30.334	-0.000	-0.000	0.000
6154	6096	6095	6094	3	30.334	0.000	-30.334	-0.000	-0.000	0.000
6156	6099	6100	6094	3	30.334	0.000	-30.334	-0.000	-0.000	0.000
6161	6105	6106	6107	3	30.334	0.000	-30.334	-0.000	-0.000	0.000
6183	6142	6106	6107	3	30.334	0.000	-30.334	-0.000	-0.000	0.000
6168	6128	6129	6130	3	30.334	0.000	-30.334	-0.000	-0.000	0.000
6156	6099	6097	6096	3	30.334	0.000	-30.334	-0.000	-0.000	0.000
6171	6131	6130	6129	3	30.334	0.000	-30.334	-0.000	-0.000	0.000
6183	6142	6143	6103	3	30.334	0.000	-30.334	-0.000	-0.000	0.000
6169	6129	6128	6127	3	30.334	0.000	-30.334	-0.000	-0.000	0.000
6184	6143	6142	6106	3	30.334	0.000	-30.334	-0.000	-0.000	0.000
6170	6130	6129	6128	3	30.334	0.000	-30.334	-0.000	-0.000	0.000
6159	6102	6090	6091	3	30.334	0.000	-30.334	-0.000	-0.000	0.000
6158	6101	6102	6090	3	30.334	0.000	-30.334	-0.000	-0.000	0.000
6183	6142	6106	6105	3	30.334	0.000	-30.334	-0.000	-0.000	0.000
6184	6143	6103	6104	3	30.334	0.000	-30.334	-0.000	-0.000	0.000
6171	6131	6132	6127	3	30.334	0.000	-30.334	-0.000	-0.000	0.000
6168	6128	6127	6132	3	30.334	0.000	-30.334	-0.000	-0.000	0.000
6153	6095	6096	6097	3	30.334	0.000	-30.334	-0.000	-0.000	0.000
6154	6096	6097	6099	3	30.334	0.000	-30.334	-0.000	-0.000	0.000
6151	6091	6090	6102	3	30.334	0.000	-30.334	-0.000	-0.000	0.000
6160	6104	6103	6143	3	30.334	0.000	-30.334	-0.000	-0.000	0.000
6160	6104	6105	6106	3	30.334	0.000	-30.334	-0.000	-0.000	0.000
6157	6100	6099	6097	3	30.334	0.000	-30.334	-0.000	-0.000	0.000
6161	6105	6106	6142	3	30.334	0.000	-30.334	-0.000	-0.000	0.000
6170	6130	6131	6132	3	30.334	0.000	-30.334	-0.000	-0.000	0.000
6172	6132	6131	6130	3	30.334	0.000	-30.334	-0.000	-0.000	0.000
6169	6129	6130	6131	3	30.334	0.000	-30.334	-0.000	-0.000	0.000
6172	6132	6127	6128	3	30.334	0.000	-30.334	-0.000	-0.000	0.000
6152	6092	6091	6090	3	30.334	0.000	-30.334	-0.000	-0.000	0.000
6161	6105	6104	6103	3	30.334	0.000	-30.334	-0.000	-0.000	0.000
6172	6132	6127	6126	3	30.334	0.000	-30.334	-0.000	-0.000	0.000
6168	6128	6127	6126	3	30.334	0.000	-30.334	-0.000	-0.000	0.000
6161	6105	6104	6160	3	30.334	0.000	-30.334	-0.000	-0.000	0.000
6184	6143	6142	6183	3	30.334	0.000	-30.334	-0.000	-0.000	0.000
6170	6130	6129	6169	3	30.334	0.000	-30.334	-0.000	-0.000	0.000
6154	6096	6095	6153	3	30.334	0.000	-30.334	-0.000	-0.000	0.000
6159	6102	6101	6158	3	30.334	0.000	-30.334	-0.000	-0.000	0.000
6157	6100	6099	6156	3	30.334	0.000	-30.334	-0.000	-0.000	0.000
6169	6129	6128	6168	3	30.334	0.000	-30.334	-0.000	-0.000	0.000
6152	6092	6091	6151	3	30.334	0.000	-30.334	-0.000	-0.000	0.000
6171	6131	6130	6170	3	30.334	0.000	-30.334	-0.000	-0.000	0.000
6172	6132	6131	6171	3	30.334	0.000	-30.334	-0.000	-0.000	0.000
6184	6143	6103	6086	3	30.334	0.000	-30.334	-0.000	-0.000	0.000
6160	6104	6103	6086	3	30.334	0.000	-30.334	-0.000	-0.000	0.000
6154	6096	6097	6098	3	0.0	0.0	0.0	-0.0	-0.0	0.0
6156	6099	6097	6098	3	0.0	0.0	0.0	-0.0	-0.0	0.0
6151	6091	6090	6089	3	30.334	0.000	-30.334	-0.000	-0.000	0.000
6159	6102	6090	6089	3	30.334	0.000	-30.334	-0.000	-0.000	0.000
6165	6112	6111	6110	3	58.576	0.000	-58.576	-0.000	-0.000	0.000
6165	6112	6113	6114	3	58.576	0.000	-58.576	-0.000	-0.000	0.000
6167	6114	6113	6112	3	58.576	0.000	-58.576	-0.000	-0.000	0.000
6166	6113	6112	6111	3	58.576	0.000	-58.576	-0.000	-0.000	0.000
6163	6108	6109	6110	3	58.576	0.000	-58.576	-0.000	-0.000	0.000
6162	6107	6108	6109	3	58.576	0.000	-58.576	-0.000	-0.000	0.000
6163	6108	6107	6106	3	58.576	0.000	-58.576	-0.000	-0.000	0.000
6166	6113	6114	6115	3	58.576	0.000	-58.576	-0.000	-0.000	0.000
6165	6112	6111	6137	3	58.576	0.000	-58.576	-0.000	-0.000	0.000
6163	6108	6109	6141	3	58.576	0.000	-58.576	-0.000	-0.000	0.000
6163	6108	6107	6162	3	58.576	0.000	-58.576	-0.000	-0.000	0.000
6166	6113	6112	6165	3	58.576	0.000	-58.576	-0.000	-0.000	0.000
6167	6114	6113	6166	3	58.576	0.000	-58.576	-0.000	-0.000	0.000
6162	6107	6106	6142	3	-0.778	-2.335	0.000	3.113	-0.000	0.000
6162	6107	6106	6105	3	-0.778	-2.335	0.000	3.113	-0.000	0.000
6167	6114	6115	6116	3	58.576	0.000	-58.576	-0.000	-0.000	0.000
6167	6114	6115	6126	3	58.576	0.000	-58.576	-0.000	-0.000	0.000
6181	6141	6109	6108	3	-0.778	-2.335	0.000	3.113	-0.000	0.000
6181	6141	6109	6110	3	-0.778	-2.335	0.000	3.113	-0.000	0.000
6182	6141	6109	6108	3	-0.778	-2.335	0.000	3.113	-0.000	0.000
6174	6137	6111	6112	3	-0.778	-2.335	0.000	3.113	-0.000	0.000
6182	6141	6109	6110	3	-0.778	-2.335	0.000	3.113	-0.000	0.000
6173	6137	6111	6110	3	-0.778	-2.335	0.000	3.113	-0.000	0.000
6174	6137	6111	6110	3	-0.778	-2.335	0.000	3.113	-0.000	0.000
6173	6137	6111	6112	3	-0.778	-2.335	0.000	3.113	-0.000	0.000
6176	6139	6138	6141	3	0.628	1.883	0.000	-2.510	-0.000	0.000
6175	6139	6138	6140	3	0.628	1.883	0.000	-2.510	-0.000	0.000
6175	6139	6138	6137	3	0.628	1.883	0.000	-2.510	-0.000	0.000
6177	6139	6138	6140	3	0.628	1.883	0.000	-2.510	-0.000	0.000
6179	6140	6138	6137	3	0.628	1.883	0.000	-2.510	-0.000	0.000
6178	6140	6138	6137	3	0.628	1.883	0.000	-2.510	-0.000	0.000
6177	6139	6138	6137	3	0.628	1.883	0.000	-2.510	-0.000	0.000
6179	6140	6138	6139	3	0.628	1.883	0.000	-2.510	-0.000	0.000
6176	6139	6138	6137	3	0.628	1.883	0.000	-2.510	-0.000	0.000
6181	6141	6138	6137	3	0.628	1.883	0.000	-2.510	-0.000	0.000
6181	6141	6138	6139	3	0.628	1.883	0.000	-2.510	-0.000	0.000
6174	6137	6138	6139	3	0.628	1.883	0.000	-2.510	-0.000	0.000
6177	6139	6138	6141	3	0.628	1.883	0.000	-2.510	-0.000	0.000
6174	6137	6138	6140	3	0.628	1.883	0.000	-2.510	-0.000	0.000
6182	6141	6138	6139	3	0.628	1.883	0.000	-2.510	-0.000	0.000
6178	6140	6138	6141	3	0.628	1.883	0.000	-2.510	-0.000	0.000
6179	6140	6138	6141	3	0.628	1.883	0.000	-2.510	-0.000	0.000
6180	6140	6138	6137	3	0.628	1.883	0.000	-2.510	-0.000	0.000
6173	6137	6138	6140	3	0.628	1.883	0.000	-2.510	-0.000	0.000
6173	6137	6138	6139	3	0.628	1.883	0.000	-2.510	-0.000	0.000
6178	6140	6138	6139	3	0.628	1.883	0.000	-2.510	-0.000	0.000
6174	6137	6138	6141	3	0.628	1.883	0.000	-2.510	-0.000	0.000
6182	6141	6138	6140	3	0.628	1.883	0.000	-2.510	-0.000	0.000
6176	6139	6138	6140	3	0.628	1.883	0.000	-2.510	-0.000	0.000
6175	6139	6138	6141	3	0.628	1.883	0.000	-2.510	-0.000	0.000
6182	6141	6138	6137	3	0.628	1.883	0.000	-2.510	-0.000	0.000
6173	6137	6138	6141	3	0.628	1.883	0.000	-2.510	-0.000	0.000
6180	6140	6138	6139	3	0.628	1.883	0.000	-2.510	-0.000	0.000
6181	6141	6138	6140	3	0.628	1.883	0.000	-2.510	-0.000	0.000
6180	6140	6138	6141	3	0.628	1.883	0.000	-2.510	-0.000	0.000
6149	6088	6087	6148	3	0.628	1.883	0.000	-2.510	-0.000	0.000
6150	6088	6087	6147	3	0.628	1.883	0.000	-2.510	-0.000	0.000
6149	6088	6087	6147	3	0.628	1.883	0.000	-2.510	-0.000	0.000
6150	6088	6087	6148	3	0.628	1.883	0.000	-2.510	-0.000	0.000
6150	6088	6087	6086	3	-4.096	5.088	2.966	-3.958	-0.000	0.000
6149	6088	6087	6086	3	-4.096	5.088	2.966	-3.958	-0.000	0.000
6148	6087	6088	6089	3	0.979	2.937	0.000	-3.916	-0.000	0.000
6147	6087	6088	6089	3	0.979	2.937	0.000	-3.916	-0.000	0.000
6148	6087	6086	6103	3	1.172	3.515	0.000	-4.686	-0.000	0.000
6144	6085	6086	6103	3	1.172	3.515	0.000	-4.686	-0.000	0.000
6147	6087	6086	6103	3	1.172	3.515	0.000	-4.686	-0.000	0.000
6145	6085	6086	6103	3	1.172	3.515	0.000	-4.686	-0.000	0.000
6146	6085	6086	6103	3	1.172	3.515	0.000	-4.686	-0.000	0.000
6147	6087	6086	6085	3	1.172	3.515	0.000	-4.686	-0.000	0.000
6145	6085	6086	6087	3	1.172	3.515	0.000	-4.686	-0.000	0.000
6148	6087	6086	6085	3	1.172	3.515	0.000	-4.686	-0.000	0.000
6146	6085	6086	6087	3	1.172	3.515	0.000	-4.686	-0.000	0.000
6144	6085	6086	6087	3	1.172	3.515	0.000	-4.686	-0.000	0.000
6149	6088	6089	6090	3	1.590	4.770	0.000	-6.360	-0.000	0.000
6150	6088	6089	6090	3	1.590	4.770	0.000	-6.360	-0.000	0.000
6155	6098	6097	6099	3	0.0	0.0	0.0	-0.0	-0.0	0.0
6155	6098	6097	6096	3	0.0	0.0	0.0	-0.0	-0.0	0.0
6098	6097	6096	6095	3	0.0	0.0	0.0	-0.0	-0.0	0.0
6125	6126	6115	6114	3	2.874	0.582	2.092	-5.548	-0.000	0.000
6125	6126	6115	6116	3	1.046	-1.046	0.000	-0.000	-0.000	0.000
6089	6088	6087	6086	3	16.736	-16.736	0.000	-0.000	-0.000	0.000
6125	6119	6116	6115	3	1.046	-1.046	0.000	-0.000	-0.000	0.000
6125	6119	6116	6117	3	9.079	0.000	-9.079	-0.000	-0.000	0.000
6194	6193	6192	6191	3	30.334	0.000	-30.334	-0.000	-0.000	0.000
6193	6201	6202	6190	3	30.334	0.000	-30.334	-0.000	-0.000	0.000
6193	6192	6191	6190	3	30.334	0.000	-30.334	-0.000	-0.000	0.000
6214	6213	6212	6211	3	21.738	2.408	-16.966	-7.180	-0.000	0.000
6210	6209	6208	6207	3	21.738	2.408	-16.966	-7.180	-0.000	0.000
6211	6210	6209	6208	3	21.738	2.408	-16.966	-7.180	-0.000	0.000
6212	6211	6210	6209	3	21.738	2.408	-16.966	-7.180	-0.000	0.000
6213	6212	6211	6210	3	21.738	2.408	-16.966	-7.180	-0.000	0.000
6209	6208	6207	6206	3	58.576	0.000	-58.576	-0.000	-0.000	0.000
6208	6207	6206	6205	3	16.027	-4.391	-14.029	2.393	-0.000	0.000
6207	6206	6205	6204	3	30.334	0.000	-30.334	-0.000	-0.000	0.000
6216	6215	6214	6213	3	58.576	0.000	-58.576	-0.000	-0.000	0.000
6201	6193	6194	6200	3	9.079	0.000	-9.079	-0.000	-0.000	0.000
6200	6194	6193	6192	3	9.079	0.000	-9.079	-0.000	-0.000	0.000
6201	6193	6194	6195	3	9.079	0.000	-9.079	-0.000	-0.000	0.000
6195	6194	6193	6192	3	9.079	0.000	-9.079	-0.000	-0.000	0.000
6200	6194	6195	6196	3	30.334	0.000	-30.334	-0.000	-0.000	0.000
6201	6193	6192	6191	3	30.334	0.000	-30.334	-0.000	-0.000	0.000
6199	6200	6194	6193	3	30.334	0.000	-30.334	-0.000	-0.000	0.000
6202	6201	6193	6194	3	30.334	0.000	-30.334	-0.000	-0.000	0.000
6196	6195	6194	6193	3	30.334	0.000	-30.334	-0.000	-0.000	0.000
6199	6200	6194	6195	3	30.334	0.000	-30.334	-0.000	-0.000	0.000
6202	6201	6193	6192	3	30.334	0.000	-30.334	-0.000	-0.000	0.000
6242	6206	6207	6208	3	16.027	-4.391	-14.029	2.393	-0.000	0.000
6197	6199	6200	6194	3	30.334	0.000	-30.334	-0.000	-0.000	0.000
6197	6196	6195	6194	3	30.334	0.000	-30.334	-0.000	-0.000	0.000
6243	6242	6206	6207	3	30.334	0.000	-30.334	-0.000	-0.000	0.000
6232	6227	6228	6229	3	30.334	0.000	-30.334	-0.000	-0.000	0.000
6243	6242	6206	6205	3	30.334	0.000	-30.334	-0.000	-0.000	0.000
6202	6190	6191	6192	3	30.334	0.000	-30.334	-0.000	-0.000	0.000
6242	6243	6203	6204	3	30.334	0.000	-30.334	-0.000	-0.000	0.000
6232	6231	6230	6229	3	30.334	0.000	-30.334	-0.000	-0.000	0.000
6231	6230	6229	6228	3	30.334	0.000	-30.334	-0.000	-0.000	0.000
6230	6229	6228	6227	3	30.334	0.000	-30.334	-0.000	-0.000	0.000
6206	6205	6204	6203	3	30.334	0.000	-30.334	-0.000	-0.000	0.000
6206	6242	6243	6203	3	30.334	0.000	-30.334	-0.000	-0.000	0.000
6243	6203	6204	6205	3	30.334	0.000	-30.334	-0.000	-0.000	0.000
6242	6206	6205	6204	3	30.334	0.000	-30.334	-0.000	-0.000	0.000
6231	6232	6227	6228	3	30.334	0.000	-30.334	-0.000	-0.000	0.000
6200	6199	6197	6196	3	30.334	0.000	-30.334	-0.000	-0.000	0.000
6201	6202	6190	6191	3	30.334	0.000	-30.334	-0.000	-0.000	0.000
6230	6231	6232	6227	3	30.334	0.000	-30.334	-0.000	-0.000	0.000
6199	6197	6196	6195	3	30.334	0.000	-30.334	-0.000	-0.000	0.000
6231	6232	6227	6226	3	30.334	0.000	-30.334	-0.000	-0.000	0.000
6229	6228	6227	6226	3	30.334	0.000	-30.334	-0.000	-0.000	0.000
6242	6243	6203	6186	3	30.334	0.000	-30.334	-0.000	-0.000	0.000
6205	6204	6203	6186	3	30.334	0.000	-30.334	-0.000	-0.000	0.000
6200	6199	6197	6198	3	0.0	0.0	0.0	-0.0	-0.0	0.0
6192	6191	6190	6189	3	30.334	0.000	-30.334	-0.000	-0.000	0.000
6201	6202	6190	6189	3	30.334	0.000	-30.334	-0.000	-0.000	0.000
6232	6227	6226	6215	3	0.000	0.000	0.000	-0.000	-0.000	0.000
6228	6227	6226	6215	3	0.000	0.000	0.000	-0.000	-0.000	0.000
6232	6227	6226	6225	3	0.000	0.000	0.000	-0.000	-0.000	0.000
6228	6227	6226	6225	3	0.000	0.000	0.000	-0.000	-0.000	0.000
6243	6203	6186	6187	3	5.184	35.932	-14.355	-26.761	-0.000	0.000
6204	6203	6186	6187	3	5.184	35.932	-14.355	-26.761	-0.000	0.000
6204	6203	6186	6185	3	5.184	35.932	-14.355	-26.761	-0.000	0.000
6243	6203	6186	6185	3	5.184	35.932	-14.355	-26.761	-0.000	0.000
6191	6190	6189	6188	3	12.552	0.000	-12.552	-0.000	-0.000	0.000
6202	6190	6189	6188	3	12.552	0.000	-12.552	-0.000	-0.000	0.000
6227	6226	6215	6214	3	6.322	-2.485	0.707	-4.544	-0.000	0.000
6227	6226	6215	6216	3	0.527	-6.397	-1.695	7.565	-0.000	0.000
6227	6226	6225	6219	3	1.715	2.845	1.046	-5.607	-0.000	0.000
6203	6186	6187	6188	3	1.789	3.492	0.536	-5.816	-0.000	0.000
6190	6189	6188	6187	3	1.715	2.845	1.046	-5.607	-0.000	0.000
6233	6226	6227	6228	3	0.000	0.000	0.000	-0.000	-0.000	0.000
6233	6226	6227	6232	3	0.000	0.000	0.000	-0.000	-0.000	0.000
6233	6226	6215	6214	3	6.322	-2.485	0.707	-4.544	-0.000	0.000
6233	6226	6215	6216	3	0.527	-6.397	-1.695	7.565	-0.000	0.000
6233	6226	6225	6219	3	1.715	2.845	1.046	-5.607	-0.000	0.000
6215	6214	6213	6212	3	21.738	2.408	-16.966	-7.180	-0.000	0.000
6220	6219	6216	6215	3	21.738	2.408	-16.966	-7.180	-0.000	0.000
6220	6219	6216	6217	3	-0.778	-2.335	0.000	3.113	-0.000	0.000
6241	6209	6208	6207	3	58.576	0.000	-58.576	-0.000	-0.000	0.000
6237	6211	6210	6209	3	58.576	0.000	-58.576	-0.000	-0.000	0.000
6241	6209	6210	6211	3	58.576	0.000	-58.576	-0.000	-0.000	0.000
6237	6211	6212	6213	3	58.576	0.000	-58.576	-0.000	-0.000	0.000
6226	6215	6214	6213	3	-0.778	-2.335	0.000	3.113	-0.000	0.000
6226	6215	6216	6219	3	58.576	0.000	-58.576	-0.000	-0.000	0.000
6226	6215	6216	6217	3	58.576	0.000	-58.576	-0.000	-0.000	0.000
6238	6241	6209	6208	3	0.527	-6.397	-1.695	7.565	-0.000	0.000
6238	6237	6211	6212	3	0.527	-6.397	-1.695	7.565	-0.000	0.000
6238	6237	6211	6210	3	0.527	-6.397	-1.695	7.565	-0.000	0.000
6238	6241	6209	6210	3	0.527	-6.397	-1.695	7.565	-0.000	0.000
6241	6238	6237	6211	3	2.301	-1.464	0.837	-1.674	-0.000	0.000
6240	6238	6241	6209	3	2.301	-1.464	0.837	-1.674	-0.000	0.000
6237	6238	6241	6209	3	2.301	-1.464	0.837	-1.674	-0.000	0.000
6239	6238	6241	6209	3	2.301	-1.464	0.837	-1.674	-0.000	0.000
6240	6238	6237	6211	3	2.301	-1.464	0.837	-1.674	-0.000	0.000
6239	6238	6237	6211	3	2.301	-1.464	0.837	-1.674	-0.000	0.000
6188	6187	6186	6185	3	1.789	3.492	0.536	-5.816	-0.000	0.000
6226	6225	6219	6216	3	30.334	0.000	-30.334	-0.000	-0.000	0.000
6226	6225	6219	6220	3	30.334	0.000	-30.334	-0.000	-0.000	0.000
6219	6216	6215	6214	3	58.576	0.000	-58.576	-0.000	-0.000	0.000
6219	6225	6226	6215	3	1.715	2.845	1.046	-5.607	-0.000	0.000
6217	6216	6215	6214	3	58.576	0.000	-58.576	-0.000	-0.000	0.000
6221	6220	6219	6216	3	58.576	0.000	-58.576	-0.000	-0.000	0.000
6223	6220	6219	6216	3	58.576	0.000	-58.576	-0.000	-0.000	0.000
6234	6233	6226	6227	3	0.000	0.000	0.000	-0.000	-0.000	0.000
6235	6233	6226	6227	3	0.000	0.000	0.000	-0.000	-0.000	0.000
6236	6233	6226	6227	3	0.000	0.000	0.000	-0.000	-0.000	0.000
6235	6233	6226	6215	3	0.000	0.000	0.000	-0.000	-0.000	0.000
6234	6233	6226	6215	3	0.000	0.000	0.000	-0.000	-0.000	0.000
6236	6233	6226	6215	3	0.000	0.000	0.000	-0.000	-0.000	0.000
6235	6233	6226	6225	3	1.130	3.389	0.000	-4.519	-0.000	0.000
6236	6233	6226	6225	3	1.130	3.389	0.000	-4.519	-0.000	0.000
6234	6233	6226	6225	3	1.130	3.389	0.000	-4.519	-0.000	0.000
6264	6210	6209	6208	3	58.576	0.000	-58.576	-0.000	-0.000	0.000
6264	6210	6211	6212	3	58.576	0.000	-58.576	-0.000	-0.000	0.000
6264	6210	6211	6237	3	58.576	0.000	-58.576	-0.000	-0.000	0.000
6264	6210	6209	6241	3	58.576	0.000	-58.576	-0.000	-0.000	0.000
6253	6195	6194	6193	3	30.334	0.000	-30.334	-0.000	-0.000	0.000
6252	6192	6193	6194	3	30.334	0.000	-30.334	-0.000	-0.000	0.000
6258	6201	6193	6194	3	30.334	0.000	-30.334	-0.000	-0.000	0.000
6257	6200	6194	6193	3	30.334	0.000	-30.334	-0.000	-0.000	0.000
6257	6200	6194	6195	3	30.334	0.000	-30.334	-0.000	-0.000	0.000
6253	6195	6194	6200	3	30.334	0.000	-30.334	-0.000	-0.000	0.000
6252	6192	6193	6201	3	30.334	0.000	-30.334	-0.000	-0.000	0.000
6258	6201	6193	6192	3	30.334	0.000	-30.334	-0.000	-0.000	0.000
6251	6191	6192	6193	3	30.334	0.000	-30.334	-0.000	-0.000	0.000
6259	6202	6201	6193	3	30.334	0.000	-30.334	-0.000	-0.000	0.000
6254	6196	6195	6194	3	30.334	0.000	-30.334	-0.000	-0.000	0.000
6256	6199	6200	6194	3	30.334	0.000	-30.334	-0.000	-0.000	0.000
6261	6205	6206	6207	3	30.334	0.000	-30.334	-0.000	-0.000	0.000
6283	6242	6206	6207	3	30.334	0.000	-30.334	-0.000	-0.000	0.000
6268	6228	6229	6230	3	30.334	0.000	-30.334	-0.000	-0.000	0.000
6256	6199	6197	6196	3	30.334	0.000	-30.334	-0.000	-0.000	0.000
6271	6231	6230	6229	3	30.334	0.000	-30.334	-0.000	-0.000	0.000
6283	6242	6243	6203	3	30.334	0.000	-30.334	-0.000	-0.000	0.000
6269	6229	6228	6227	3	30.334	0.000	-30.334	-0.000	-0.000	0.000
6284	6243	6242	6206	3	30.334	0.000	-30.334	-0.000	-0.000	0.000
6270	6230	6229	6228	3	30.334	0.000	-30.334	-0.000	-0.000	0.000
6259	6202	6190	6191	3	30.334	0.000	-30.334	-0.000	-0.000	0.000
6258	6201	6202	6190	3	30.334	0.000	-30.334	-0.000	-0.000	0.000
6283	6242	6206	6205	3	30.334	0.000	-30.334	-0.000	-0.000	0.000
6284	6243	6203	6204	3	30.334	0.000	-30.334	-0.000	-0.000	0.000
6271	6231	6232	6227	3	30.334	0.000	-30.334	-0.000	-0.000	0.000
6268	6228	6227	6232	3	30.334	0.000	-30.334	-0.000	-0.000	0.000
6253	6195	6196	6197	3	30.334	0.000	-30.334	-0.000	-0.000	0.000
6254	6196	6197	6199	3	30.334	0.000	-30.334	-0.000	-0.000	0.000
6251	6191	6190	6202	3	30.334	0.000	-30.334	-0.000	-0.000	0.000
6260	6204	6203	6243	3	30.334	0.000	-30.334	-0.000	-0.000	0.000
6260	6204	6205	6206	3	30.334	0.000	-30.334	-0.000	-0.000	0.000
6257	6200	6199	6197	3	30.334	0.000	-30.334	-0.000	-0.000	0.000
6261	6205	6206	6242	3	30.334	0.000	-30.334	-0.000	-0.000	0.000
6270	6230	6231	6232	3	30.334	0.000	-30.334	-0.000	-0.000	0.000
6272	6232	6231	6230	3	30.334	0.000	-30.334	-0.000	-0.000	0.000
6269	6229	6230	6231	3	30.334	0.000	-30.334	-0.000	-0.000	0.000
6272	6232	6227	6228	3	30.334	0.000	-30.334	-0.000	-0.000	0.000
6252	6192	6191	6190	3	30.334	0.000	-30.334	-0.000	-0.000	0.000
6261	6205	6204	6203	3	30.334	0.000	-30.334	-0.000	-0.000	0.000
6272	6232	6227	6226	3	30.334	0.000	-30.334	-0.000	-0.000	0.000
6268	6228	6227	6226	3	30.334	0.000	-30.334	-0.000	-0.000	0.000
6261	6205	6204	6260	3	30.334	0.000	-30.334	-0.000	-0.000	0.000
6284	6243	6242	6283	3	30.334	0.000	-30.334	-0.000	-0.000	0.000
6270	6230	6229	6269	3	30.334	0.000	-30.334	-0.000	-0.000	0.000
6254	6196	6195	6253	3	30.334	0.000	-30.334	-0.000	-0.000	0.000
6259	6202	6201	6258	3	30.334	0.000	-30.334	-0.000	-0.000	0.000
6257	6200	6199	6256	3	30.334	0.000	-30.334	-0.000	-0.000	0.000
6269	6229	6228	6268	3	30.334	0.000	-30.334	-0.000	-0.000	0.000
6252	6192	6191	6251	3	30.334	0.000	-30.334	-0.000	-0.000	0.000
6271	6231	6230	6270	3	30.334	0.000	-30.334	-0.000	-0.000	0.000
6272	6232	6231	6271	3	30.334	0.000	-30.334	-0.000	-0.000	0.000
6284	6243	6203	6186	3	30.334	0.000	-30.334	-0.000	-0.000	0.000
6260	6204	6203	6186	3	30.334	0.000	-30.334	-0.000	-0.000	0.000
6254	6196	6197	6198	3	0.0	0.0	0.0	-0.0	-0.0	0.0
6256	6199	6197	6198	3	0.0	0.0	0.0	-0.0	-0.0	0.0
6251	6191	6190	6189	3	30.334	0.000	-30.334	-0.000	-0.000	0.000
6259	6202	6190	6189	3	30.334	0.000	-30.334	-0.000	-0.000	0.000
6265	6212	6211	6210	3	58.576	0.000	-58.576	-0.000	-0.000	0.000
6265	6212	6213	6214	3	58.576	0.000	-58.576	-0.000	-0.000	0.000
6267	6214	6213	6212	3	58.576	0.000	-58.576	-0.000	-0.000	0.000
6266	6213	6212	6211	3	58.576	0.000	-58.576	-0.000	-0.000	0.000
6263	6208	6209	6210	3	58.576	0.000	-58.576	-0.000	-0.000	0.000
6262	6207	6208	6209	3	58.576	0.000	-58.576	-0.000	-0.000	0.000
6263	6208	6207	6206	3	58.576	0.000	-58.576	-0.000	-0.000	0.000
6266	6213	6214	6215	3	58.576	0.000	-58.576	-0.000	-0.000	0.000
6265	6212	6211	6237	3	58.576	0.000	-58.576	-0.000	-0.000	0.000
6263	6208	6209	6241	3	58.576	0.000	-58.576	-0.000	-0.000	0.000
6263	6208	6207	6262	3	58.576	0.000	-58.576	-0.000	-0.000	0.000
6266	6213	6212	6265	3	58.576	0.000	-58.576	-0.000	-0.000	0.000
6267	6214	6213	6266	3	58.576	0.000	-58.576	-0.000	-0.000	0.000
6262	6207	6206	6242	3	-0.778	-2.335	0.000	3.113	-0.000	0.000
6262	6207	6206	6205	3	-0.778	-2.335	0.000	3.113	-0.000	0.000
6267	6214	6215	6216	3	58.576	0.000	-58.576	-0.000	-0.000	0.000
6267	6214	6215	6226	3	58.576	0.000	-58.576	-0.000	-0.000	0.000
6281	6241	6209	6208	3	-0.778	-2.335	0.000	3.113	-0.000	0.000
6281	6241	6209	6210	3	-0.778	-2.335	0.000	3.113	-0.000	0.000
6282	6241	6209	6208	3	-0.778	-2.335	0.000	3.113	-0.000	0.000
6274	6237	6211	6212	3	-0.778	-2.335	0.000	3.113	-0.000	0.000
6282	6241	6209	6210	3	-0.778	-2.335	0.000	3.113	-0.000	0.000
6273	6237	6211	6210	3	-0.778	-2.335	0.000	3.113	-0.000	0.000
6274	6237	6211	6210	3	-0.778	-2.335	0.000	3.113	-0.000	0.000
6273	6237	6211	6212	3	-0.778	-2.335	0.000	3.113	-0.000	0.000
6276	6239	6238	6241	3	0.628	1.883	0.000	-2.510	-0.000	0.000
6275	6239	6238	6240	3	0.628	1.883	0.000	-2.510	-0.000	0.000
6275	6239	6238	6237	3	0.628	1.883	0.000	-2.510	-0.000	0.000
6277	6239	6238	6240	3	0.628	1.883	0.000	-2.510	-0.000	0.000
6279	6240	6238	6237	3	0.628	1.883	0.000	-2.510	-0.000	0.000
6278	6240	6238	6237	3	0.628	1.883	0.000	-2.510	-0.000	0.000
6277	6239	6238	6237	3	0.628	1.883	0.000	-2.510	-0.000	0.000
6279	6240	6238	6239	3	0.628	1.883	0.000	-2.510	-0.000	0.000
6276	6239	6238	6237	3	0.628	1.883	0.000	-2.510	-0.000	0.000
6281	6241	6238	6237	3	0.628	1.883	0.000	-2.510	-0.000	0.000
6281	6241	6238	6239	3	0.628	1.883	0.000	-2.510	-0.000	0.000
6274	6237	6238	6239	3	0.628	1.883	0.000	-2.510	-0.000	0.000
6277	6239	6238	6241	3	0.628	1.883	0.000	-2.510	-0.000	0.000
6274	6237	6238	6240	3	0.628	1.883	0.000	-2.510	-0.000	0.000
6282	6241	6238	6239	3	0.628	1.883	0.000	-2.510	-0.000	0.000
6278	6240	6238	6241	3	0.628	1.883	0.000	-2.510	-0.000	0.000
6279	6240	6238	6241	3	0.628	1.883	0.000	-2.510	-0.000	0.000
6280	6240	6238	6237	3	0.628	1.883	0.000	-2.510	-0.000	0.000
6273	6237	6238	6240	3	0.628	1.883	0.000	-2.510	-0.000	0.000
6273	6237	6238	6239	3	0.628	1.883	0.000	-2.510	-0.000	0.000
6278	6240	6238	6239	3	0.628	1.883	0.000	-2.510	-0.000	0.000
6274	6237	6238	6241	3	0.628	1.883	0.000	-2.510	-0.000	0.000
6282	6241	6238	6240	3	0.628	1.883	0.000	-2.510	-0.000	0.000
6276	6239	6238	6240	3	0.628	1.883	0.000	-2.510	-0.000	0.000
6275	6239	6238	6241	3	0.628	1.883	0.000	-2.510	-0.000	0.000
6282	6241	6238	6237	3	0.628	1.883	0.000	-2.510	-0.000	0.000
6273	6237	6238	6241	3	0.628	1.883	0.000	-2.510	-0.000	0.000
6280	6240	6238	6239	3	0.628	1.883	0.000	-2.510	-0.000	0.000
6281	6241	6238	6240	3	0.628	1.883	0.000	-2.510	-0.000	0.000
6280	6240	6238	6241	3	0.628	1.883	0.000	-2.510	-0.000	0.000
6249	6188	6187	6248	3	0.628	1.883	0.000	-2.510	-0.000	0.000
6250	6188	6187	6247	3	0.628	1.883	0.000	-2.510	-0.000	0.000
6249	6188	6187	6247	3	0.628	1.883	0.000	-2.510	-0.000	0.000
6250	6188	6187	6248	3	0.628	1.883	0.000	-2.510	-0.000	0.000
6250	6188	6187	6186	3	-4.096	5.088	2.966	-3.958	-0.000	0.000
6249	6188	6187	6186	3	-4.096	5.088	2.966	-3.958	-0.000	0.000
6248	6187	6188	6189	3	0.979	2.937	0.000	-3.916	-0.000	0.000
6247	6187	6188	6189	3	0.979	2.937	0.000	-3.916	-0.000	0.000
6248	6187	6186	6203	3	1.172	3.515	0.000	-4.686	-0.000	0.000
6244	6185	6186	6203	3	1.172	3.515	0.000	-4.686	-0.000	0.000
6247	6187	6186	6203	3	1.172	3.515	0.000	-4.686	-0.000	0.000
6245	6185	6186	6203	3	1.172	3.515	0.000	-4.686	-0.000	0.000
6246	6185	6186	6203	3	1.172	3.515	0.000	-4.686	-0.000	0.000
6247	6187	6186	6185	3	1.172	3.515	0.000	-4.686	-0.000	0.000
6245	6185	6186	6187	3	1.172	3.515	0.000	-4.686	-0.000	0.000
6248	6187	6186	6185	3	1.172	3.515	0.000	-4.686	-0.000	0.000
6246	6185	6186	6187	3	1.172	3.515	0.000	-4.686	-0.000	0.000
6244	6185	6186	6187	3	1.172	3.515	0.000	-4.686	-0.000	0.000
6249	6188	6189	6190	3	1.590	4.770	0.000	-6.360	-0.000	0.000
6250	6188	6189	6190	3	1.590	4.770	0.000	-6.360	-0.000	0.000
6255	6198	6197	6199	3	0.0	0.0	0.0	-0.0	-0.0	0.0
6255	6198	6197	6196	3	0.0	0.0	0.0	-0.0	-0.0	0.0
6198	6197	6196	6195	3	0.0	0.0	0.0	-0.0	-0.0	0.0
6225	6226	6215	6214	3	2.874	0.582	2.092	-5.548	-0.000	0.000
6225	6226	6215	6216	3	1.046	-1.046	0.000	-0.000	-0.000	0.000
6189	6188	6187	6186	3	16.736	-16.736	0.000	-0.000	-0.000	0.000
6225	6219	6216	6215	3	1.046	-1.046	0.000	-0.000	-0.000	0.000
6225	6219	6216	6217	3	9.079	0.000	-9.079	-0.000	-0.000	0.000
6294	6293	6292	6291	3	30.334	0.000	-30.334	-0.000	-0.000	0.000
6293	6301	6302	6290	3	30.334	0.000	-30.334	-0.000	-0.000	0.000
6293	6292	6291	6290	3	30.334	0.000	-30.334	-0.000	-0.000	0.000
6314	6313	6312	6311	3	21.738	2.408	-16.966	-7.180	-0.000	0.000
6310	6309	6308	6307	3	21.738	2.408	-16.966	-7.180	-0.000	0.000
6311	6310	6309	6308	3	21.738	2.408	-16.966	-7.180	-0.000	0.000
6312	6311	6310	6309	3	21.738	2.408	-16.966	-7.180	-0.000	0.000
6313	6312	6311	6310	3	21.738	2.408	-16.966	-7.180	-0.000	0.000
6309	6308	6307	6306	3	58.576	0.000	-58.576	-0.000	-0.000	0.000
6308	6307	6306	6305	3	16.027	-4.391	-14.029	2.393	-0.000	0.000
6307	6306	6305	6304	3	30.334	0.000	-30.334	-0.000	-0.000	0.000
6316	6315	6314	6313	3	58.576	0.000	-58.576	-0.000	-0.000	0.000
6301	6293	6294	6300	3	9.079	0.000	-9.079	-0.000	-0.000	0.000
6300	6294	6293	6292	3	9.079	0.000	-9.079	-0.000	-0.000	0.000
6301	6293	6294	6295	3	9.079	0.000	-9.079	-0.000	-0.000	0.000
6295	6294	6293	6292	3	9.079	0.000	-9.079	-0.000	-0.000	0.000
6300	6294	6295	6296	3	30.334	0.000	-30.334	-0.000	-0.000	0.000
6301	6293	6292	6291	3	30.334	0.000	-30.334	-0.000	-0.000	0.000
6299	6300	6294	6293	3	30.334	0.000	-30.334	-0.000	-0.000	0.000
6302	6301	6293	6294	3	30.334	0.000	-30.334	-0.000	-0.000	0.000
6296	6295	6294	6293	3	30.334	0.000	-30.334	-0.000	-0.000	0.000
6299	6300	6294	6295	3	30.334	0.000	-30.334	-0.000	-0.000	0.000
6302	6301	6293	6292	3	30.334	0.000	-30.334	-0.000	-0.000	0.000
6342	6306	6307	6308	3	16.027	-4.391	-14.029	2.393	-0.000	0.000
6297	6299	6300	6294	3	30.334	0.000	-30.334	-0.000	-0.000	0.000
6297	6296	6295	6294	3	30.334	0.000	-30.334	-0.000	-0.000	0.000
6343	6342	6306	6307	3	30.334	0.000	-30.334	-0.000	-0.000	0.000
6332	6327	6328	6329	3	30.334	0.000	-30.334	-0.000	-0.000	0.000
6343	6342	6306	6305	3	30.334	0.000	-30.334	-0.000	-0.000	0.000
6302	6290	6291	6292	3	30.334	0.000	-30.334	-0.000	-0.000	0.000
6342	6343	6303	6304	3	30.334	0.000	-30.334	-0.000	-0.000	0.000
6332	6331	6330	6329	3	30.334	0.000	-30.334	-0.000	-0.000	0.000
6331	6330	6329	6328	3	30.334	0.000	-30.334	-0.000	-0.000	0.000
6330	6329	6328	6327	3	30.334	0.000	-30.334	-0.000	-0.000	0.000
6306	6305	6304	6303	3	30.334	0.000	-30.334	-0.000	-0.000	0.000
6306	6342	6343	6303	3	30.334	0.000	-30.334	-0.000	-0.000	0.000
6343	6303	6304	6305	3	30.334	0.000	-30.334	-0.000	-0.000	0.000
6342	6306	6305	6304	3	30.334	0.000	-30.334	-0.000	-0.000	0.000
6331	6332	6327	6328	3	30.334	0.000	-30.334	-0.000	-0.000	0.000
6300	6299	6297	6296	3	30.334	0.000	-30.334	-0.000	-0.000	0.000
6301	6302	6290	6291	3	30.334	0.000	-30.334	-0.000	-0.000	0.000
6330	6331	6332	6327	3	30.334	0.000	-30.334	-0.000	-0.000	0.000
6299	6297	6296	6295	3	30.334	0.000	-30.334	-0.000	-0.000	0.000
6331	6332	6327	6326	3	30.334	0.000	-30.334	-0.000	-0.000	0.000
6329	6328	6327	6326	3	30.334	0.000	-30.334	-0.000	-0.000	0.000
6342	6343	6303	6286	3	30.334	0.000	-30.334	-0.000	-0.000	0.000
6305	6304	6303	6286	3	30.334	0.000	-30.334	-0.000	-0.000	0.000
6300	6299	6297	6298	3	0.0	0.0	0.0	-0.0	-0.0	0.0
6292	6291	6290	6289	3	30.334	0.000	-30.334	-0.000	-0.000	0.000
6301	6302	6290	6289	3	30.334	0.000	-30.334	-0.000	-0.000	0.000
6332	6327	6326	6315	3	0.000	0.000	0.000	-0.000	-0.000	0.000
6328	6327	6326	6315	3	0.000	0.000	0.000	-0.000	-0.000	0.000
6332	6327	6326	6325	3	0.000	0.000	0.000	-0.000	-0.000	0.000
6328	6327	6326	6325	3	0.000	0.000	0.000	-0.000	-0.000	0.000
6343	6303	6286	6287	3	5.184	35.932	-14.355	-26.761	-0.000	0.000
6304	6303	6286	6287	3	5.184	35.932	-14.355	-26.761	-0.000	0.000
6304	6303	6286	6285	3	5.184	35.932	-14.355	-26.761	-0.000	0.000
6343	6303	6286	6285	3	5.184	35.932	-14.355	-26.761	-0.000	0.000
6291	6290	6289	6288	3	12.552	0.000	-12.552	-0.000	-0.000	0.000
6302	6290	6289	6288	3	12.552	0.000	-12.552	-0.000	-0.000	0.000
6327	6326	6315	6314	3	6.322	-2.485	0.707	-4.544	-0.000	0.000
6327	6326	6315	6316	3	0.527	-6.397	-1.695	7.565	-0.000	0.000
6327	6326	6325	6319	3	1.715	2.845	1.046	-5.607	-0.000	0.000
6303	6286	6287	6288	3	1.789	3.492	0.536	-5.816	-0.000	0.000
6290	6289	6288	6287	3	1.715	2.845	1.046	-5.607	-0.000	0.000
6333	6326	6327	6328	3	0.000	0.000	0.000	-0.000	-0.000	0.000
6333	6326	6327	6332	3	0.000	0.000	0.000	-0.000	-0.000	0.000
6333	6326	6315	6314	3	6.322	-2.485	0.707	-4.544	-0.000	0.000
6333	6326	6315	6316	3	0.527	-6.397	-1.695	7.565	-0.000	0.000
6333	6326	6325	6319	3	1.715	2.845	1.046	-5.607	-0.000	0.000
6315	6314	6313	6312	3	21.738	2.408	-16.966	-7.180	-0.000	0.000
6320	6319	6316	6315	3	21.738	2.408	-16.966	-7.180	-0.000	0.000
6320	6319	6316	6317	3	-0.778	-2.335	0.000	3.113	-0.000	0.000
6341	6309	6308	6307	3	58.576	0.000	-58.576	-0.000	-0.000	0.000
6337	6311	6310	6309	3	58.576	0.000	-58.576	-0.000	-0.000	0.000
6341	6309	6310	6311	3	58.576	0.000	-58.576	-0.000	-0.000	0.000
6337	6311	6312	6313	3	58.576	0.000	-58.576	-0.000	-0.000	0.000
6326	6315	6314	6313	3	-0.778	-2.335	0.000	3.113	-0.000	0.000
6326	6315	6316	6319	3	58.576	0.000	-58.576	-0.000	-0.000	0.000
6326	6315	6316	6317	3	58.576	0.000	-58.576	-0.000	-0.000	0.000
6338	6341	6309	6308	3	0.527	-6.397	-1.695	7.565	-0.000	0.000
6338	6337	6311	6312	3	0.527	-6.397	-1.695	7.565	-0.000	0.000
6338	6337	6311	6310	3	0.527	-6.397	-1.695	7.565	-0.000	0.000
6338	6341	6309	6310	3	0.527	-6.397	-1.695	7.565	-0.000	0.000
6341	6338	6337	6311	3	2.301	-1.464	0.837	-1.674	-0.000	0.000
6340	6338	6341	6309	3	2.301	-1.464	0.837	-1.674	-0.000	0.000
6337	6338	6341	6309	3	2.301	-1.464	0.837	-1.674	-0.000	0.000
6339	6338	6341	6309	3	2.301	-1.464	0.837	-1.674	-0.000	0.000
6340	6338	6337	6311	3	2.301	-1.464	0.837	-1.674	-0.000	0.000
6339	6338	6337	6311	3	2.301	-1.464	0.837	-1.674	-0.000	0.000
6288	6287	6286	6285	3	1.789	3.492	0.536	-5.816	-0.000	0.000
6326	6325	6319	6316	3	30.334	0.000	-30.334	-0.000	-0.000	0.000
6326	6325	6319	6320	3	30.334	0.000	-30.334	-0.000	-0.000	0.000
6319	6316	6315	6314	3	58.576	0.000	-58.576	-0.000	-0.000	0.000
6319	6325	6326	6315	3	1.715	2.845	1.046	-5.607	-0.000	0.000
6317	6316	6315	6314	3	58.576	0.000	-58.576	-0.000	-0.000	0.000
6321	6320	6319	6316	3	58.576	0.000	-58.576	-0.000	-0.000	0.000
6323	6320	6319	6316	3	58.576	0.000	-58.576	-0.000	-0.000	0.000
6334	6333	6326	6327	3	0.000	0.000	0.000	-0.000	-0.000	0.000
6335	6333	6326	6327	3	0.000	0.000	0.000	-0.000	-0.000	0.000
6336	6333	6326	6327	3	0.000	0.000	0.000	-0.000	-0.000	0.000
6335	6333	6326	6315	3	0.000	0.000	0.000	-0.000	-0.000	0.000
6334	6333	6326	6315	3	0.000	0.000	0.000	-0.000	-0.000	0.000
6336	6333	6326	6315	3	0.000	0.000	0.000	-0.000	-0.000	0.000
6335	6333	6326	6325	3	1.130	3.389	0.000	-4.519	-0.000	0.000
6336	6333	6326	6325	3	1.130	3.389	0.000	-4.519	-0.000	0.000
6334	6333	6326	6325	3	1.130	3.389	0.000	-4.519	-0.000	0.000
6364	6310	6309	6308	3	58.576	0.000	-58.576	-0.000	-0.000	0.000
6364	6310	6311	6312	3	58.576	0.000	-58.576	-0.000	-0.000	0.000
6364	6310	6311	6337	3	58.576	0.000	-58.576	-0.000	-0.000	0.000
6364	6310	6309	6341	3	58.576	0.000	-58.576	-0.000	-0.000	0.000
6353	6295	6294	6293	3	30.334	0.000	-30.334	-0.000	-0.000	0.000
6352	6292	6293	6294	3	30.334	0.000	-30.334	-0.000	-0.000	0.000
6358	6301	6293	6294	3	30.334	0.000	-30.334	-0.000	-0.000	0.000
6357	6300	6294	6293	3	30.334	0.000	-30.334	-0.000	-0.000	0.000
6357	6300	6294	6295	3	30.334	0.000	-30.334	-0.000	-0.000	0.000
6353	6295	6294	6300	3	30.334	0.000	-30.334	-0.000	-0.000	0.000
6352	6292	6293	6301	3	30.334	0.000	-30.334	-0.000	-0.000	0.000
6358	6301	6293	6292	3	30.334	0.000	-30.334	-0.000	-0.000	0.000
6351	6291	6292	6293	3	30.334	0.000	-30.334	-0.000	-0.000	0.000
6359	6302	6301	6293	3	30.334	0.000	-30.334	-0.000	-0.000	0.000
6354	6296	6295	6294	3	30.334	0.000	-30.334	-0.000	-0.000	0.000
6356	6299	6300	6294	3	30.334	0.000	-30.334	-0.000	-0.000	0.000
6361	6305	6306	6307	3	30.334	0.000	-30.334	-0.000	-0.000	0.000
6383	6342	6306	6307	3	30.334	0.000	-30.334	-0.000	-0.000	0.000
6368	6328	6329	6330	3	30.334	0.000	-30.334	-0.000	-0.000	0.000
6356	6299	6297	6296	3	30.334	0.000	-30.334	-0.000	-0.000	0.000
6371	6331	6330	6329	3	30.334	0.000	-30.334	-0.000	-0.000	0.000
6383	6342	6343	6303	3	30.334	0.000	-30.334	-0.000	-0.000	0.000
6369	6329	6328	6327	3	30.334	0.000	-30.334	-0.000	-0.000	0.000
6384	6343	6342	6306	3	30.334	0.000	-30.334	-0.000	-0.000	0.000
6370	6330	6329	6328	3	30.334	0.000	-30.334	-0.000	-0.000	0.000
6359	6302	6290	6291	3	30.334	0.000	-30.334	-0.000	-0.000	0.000
6358	6301	6302	6290	3	30.334	0.000	-30.334	-0.000	-0.000	0.000
6383	6342	6306	6305	3	30.334	0.000	-30.334	-0.000	-0.000	0.000
6384	6343	6303	6304	3	30.334	0.000	-30.334	-0.000	-0.000	0.000
6371	6331	6332	6327	3	30.334	0.000	-30.334	-0.000	-0.000	0.000
6368	6328	6327	6332	3	30.334	0.000	-30.334	-0.000	-0.000	0.000
6353	6295	6296	6297	3	30.334	0.000	-30.334	-0.000	-0.000	0.000
6354	6296	6297	6299	3	30.334	0.000	-30.334	-0.000	-0.000	0.000
6351	6291	6290	6302	3	30.334	0.000	-30.334	-0.000	-0.000	0.000
6360	6304	6303	6343	3	30.334	0.000	-30.334	-0.000	-0.000	0.000
6360	6304	6305	6306	3	30.334	0.000	-30.334	-0.000	-0.000	0.000
6357	6300	6299	6297	3	30.334	0.000	-30.334	-0.000	-0.000	0.000
6361	6305	6306	6342	3	30.334	0.000	-30.334	-0.000	-0.000	0.000
6370	6330	6331	6332	3	30.334	0.000	-30.334	-0.000	-0.000	0.000
6372	6332	6331	6330	3	30.334	0.000	-30.334	-0.000	-0.000	0.000
6369	6329	6330	6331	3	30.334	0.000	-30.334	-0.000	-0.000	0.000
6372	6332	6327	6328	3	30.334	0.000	-30.334	-0.000	-0.000	0.000
6352	6292	6291	6290	3	30.334	0.000	-30.334	-0.000	-0.000	0.000
6361	6305	6304	6303	3	30.334	0.000	-30.334	-0.000	-0.000	0.000
6372	6332	6327	6326	3	30.334	0.000	-30.334	-0.000	-0.000	0.000
6368	6328	6327	6326	3	30.334	0.000	-30.334	-0.000	-0.000	0.000
6361	6305	6304	6360	3	30.334	0.000	-30.334	-0.000	-0.000	0.000
6384	6343	6342	6383	3	30.334	0.000	-30.334	-0.000	-0.000	0.000
6370	6330	6329	6369	3	30.334	0.000	-30.334	-0.000	-0.000	0.000
6354	6296	6295	6353	3	30.334	0.000	-30.334	-0.000	-0.000	0.000
6359	6302	6301	6358	3	30.334	0.000	-30.334	-0.000	-0.000	0.000
6357	6300	6299	6356	3	30.334	0.000	-30.334	-0.000	-0.000	0.000
6369	6329	6328	6368	3	30.334	0.000	-30.334	-0.000	-0.000	0.000
6352	6292	6291	6351	3	30.334	0.000	-30.334	-0.000	-0.000	0.000
6371	6331	6330	6370	3	30.334	0.000	-30.334	-0.000	-0.000	0.000
6372	6332	6331	6371	3	30.334	0.000	-30.334	-0.000	-0.000	0.000
6384	6343	6303	6286	3	30.334	0.000	-30.334	-0.000	-0.000	0.000
6360	6304	6303	6286	3	30.334	0.000	-30.334	-0.000	-0.000	0.000
6354	6296	6297	6298	3	0.0	0.0	0.0	-0.0	-0.0	0.0
6356	6299	6297	6298	3	0.0	0.0	0.0	-0.0	-0.0	0.0
6351	6291	6290	6289	3	30.334	0.000	-30.334	-0.000	-0.000	0.000
6359	6302	6290	6289	3	30.334	0.000	-30.334	-0.000	-0.000	0.000
6365	6312	6311	6310	3	58.576	0.000	-58.576	-0.000	-0.000	0.000
6365	6312	6313	6314	3	58.576	0.000	-58.576	-0.000	-0.000	0.000
6367	6314	6313	6312	3	58.576	0.000	-58.576	-0.000	-0.000	0.000
6366	6313	6312	6311	3	58.576	0.000	-58.576	-0.000	-0.000	0.000
6363	6308	6309	6310	3	58.576	0.000	-58.576	-0.000	-0.000	0.000
6362	6307	6308	6309	3	58.576	0.000	-58.576	-0.000	-0.000	0.000
6363	6308	6307	6306	3	58.576	0.000	-58.576	-0.000	-0.000	0.000
6366	6313	6314	6315	3	58.576	0.000	-58.576	-0.000	-0.000	0.000
6365	6312	6311	6337	3	58.576	0.000	-58.576	-0.000	-0.000	0.000
6363	6308	6309	6341	3	58.576	0.000	-58.576	-0.000	-0.000	0.000
6363	6308	6307	6362	3	58.576	0.000	-58.576	-0.000	-0.000	0.000
6366	6313	6312	6365	3	58.576	0.000	-58.576	-0.000	-0.000	0.000
6367	6314	6313	6366	3	58.576	0.000	-58.576	-0.000	-0.000	0.000
6362	6307	6306	6342	3	-0.778	-2.335	0.000	3.113	-0.000	0.000
6362	6307	6306	6305	3	-0.778	-2.335	0.000	3.113	-0.000	0.000
6367	6314	6315	6316	3	58.576	0.000	-58.576	-0.000	-0.000	0.000
6367	6314	6315	6326	3	58.576	0.000	-58.576	-0.000	-0.000	0.000
6381	6341	6309	6308	3	-0.778	-2.335	0.000	3.113	-0.000	0.000
6381	6341	6309	6310	3	-0.778	-2.335	0.000	3.113	-0.000	0.000
6382	6341	6309	6308	3	-0.778	-2.335	0.000	3.113	-0.000	0.000
6374	6337	6311	6312	3	-0.778	-2.335	0.000	3.113	-0.000	0.000
6382	6341	6309	6310	3	-0.778	-2.335	0.000	3.113	-0.000	0.000
6373	6337	6311	6310	3	-0.778	-2.335	0.000	3.113	-0.000	0.000
6374	6337	6311	6310	3	-0.778	-2.335	0.000	3.113	-0.000	0.000
6373	6337	6311	6312	3	-0.778	-2.335	0.000	3.113	-0.000	0.000
6376	6339	6338	6341	3	0.628	1.883	0.000	-2.510	-0.000	0.000
6375	6339	6338	6340	3	0.628	1.883	0.000	-2.510	-0.000	0.000
6375	6339	6338	6337	3	0.628	1.883	0.000	-2.510	-0.000	0.000
6377	6339	6338	6340	3	0.628	1.883	0.000	-2.510	-0.000	0.000
6379	6340	6338	6337	3	0.628	1.883	0.000	-2.510	-0.000	0.000
6378	6340	6338	6337	3	0.628	1.883	0.000	-2.510	-0.000	0.000
6377	6339	6338	6337	3	0.628	1.883	0.000	-2.510	-0.000	0.000
6379	6340	6338	6339	3	0.628	1.883	0.000	-2.510	-0.000	0.000
6376	6339	6338	6337	3	0.628	1.883	0.000	-2.510	-0.000	0.000
6381	6341	6338	6337	3	0.628	1.883	0.000	-2.510	-0.000	0.000
6381	6341	6338	6339	3	0.628	1.883	0.000	-2.510	-0.000	0.000
6374	6337	6338	6339	3	0.628	1.883	0.000	-2.510	-0.000	0.000
6377	6339	6338	6341	3	0.628	1.883	0.000	-2.510	-0.000	0.000
6374	6337	6338	6340	3	0.628	1.883	0.000	-2.510	-0.000	0.000
6382	6341	6338	6339	3	0.628	1.883	0.000	-2.510	-0.000	0.000
6378	6340	6338	6341	3	0.628	1.883	0.000	-2.510	-0.000	0.000
6379	6340	6338	6341	3	0.628	1.883	0.000	-2.510	-0.000	0.000
6380	6340	6338	6337	3	0.628	1.883	0.000	-2.510	-0.000	0.000
6373	6337	6338	6340	3	0.628	1.883	0.000	-2.510	-0.000	0.000
6373	6337	6338	6339	3	0.628	1.883	0.000	-2.510	-0.000	0.000
6378	6340	6338	6339	3	0.628	1.883	0.000	-2.510	-0.000	0.000
6374	6337	6338	6341	3	0.628	1.883	0.000	-2.510	-0.000	0.000
6382	6341	6338	6340	3	0.628	1.883	0.000	-2.510	-0.000	0.000
6376	6339	6338	6340	3	0.628	1.883	0.000	-2.510	-0.000	0.000
6375	6339	6338	6341	3	0.628	1.883	0.000	-2.510	-0.000	0.000
6382	6341	6338	6337	3	0.628	1.883	0.000	-2.510	-0.000	0.000
6373	6337	6338	6341	3	0.628	1.883	0.000	-2.510	-0.000	0.000
6380	6340	6338	6339	3	0.628	1.883	0.000	-2.510	-0.000	0.000
6381	6341	6338	6340	3	0.628	1.883	0.000	-2.510	-0.000	0.000
6380	6340	6338	6341	3	0.628	1.883	0.000	-2.510	-0.000	0.000
6349	6288	6287	6348	3	0.628	1.883	0.000	-2.510	-0.000	0.000
6350	6288	6287	6347	3	0.628	1.883	0.000	-2.510	-0.000	0.000
6349	6288	6287	6347	3	0.628	1.883	0.000	-2.510	-0.000	0.000
6350	6288	6287	6348	3	0.628	1.883	0.000	-2.510	-0.000	0.000
6350	6288	6287	6286	3	-4.096	5.088	2.966	-3.958	-0.000	0.000
6349	6288	6287	6286	3	-4.096	5.088	2.966	-3.958	-0.000	0.000
6348	6287	6288	6289	3	0.979	2.937	0.000	-3.916	-0.000	0.000
6347	6287	6288	6289	3	0.979	2.937	0.000	-3.916	-0.000	0.000
6348	6287	6286	6303	3	1.172	3.515	0.000	-4.686	-0.000	0.000
6344	6285	6286	6303	3	1.172	3.515	0.000	-4.686	-0.000	0.000
6347	6287	6286	6303	3	1.172	3.515	0.000	-4.686	-0.000	0.000
6345	6285	6286	6303	3	1.172	3.515	0.000	-4.686	-0.000	0.000
6346	6285	6286	6303	3	1.172	3.515	0.000	-4.686	-0.000	0.000
6347	6287	6286	6285	3	1.172	3.515	0.000	-4.686	-0.000	0.000
6345	6285	6286	6287	3	1.172	3.515	0.000	-4.686	-0.000	0.000
6348	6287	6286	6285	3	1.172	3.515	0.000	-4.686	-0.000	0.000
6346	6285	6286	6287	3	1.172	3.515	0.000	-4.686	-0.000	0.000
6344	6285	6286	6287	3	1.172	3.515	0.000	-4.686	-0.000	0.000
6349	6288	6289	6290	3	1.590	4.770	0.000	-6.360	-0.000	0.000
6350	6288	6289	6290	3	1.590	4.770	0.000	-6.360	-0.000	0.000
6355	6298	6297	6299	3	0.0	0.0	0.0	-0.0	-0.0	0.0
6355	6298	6297	6296	3	0.0	0.0	0.0	-0.0	-0.0	0.0
6298	6297	6296	6295	3	0.0	0.0	0.0	-0.0	-0.0	0.0
6325	6326	6315	6314	3	2.874	0.582	2.092	-5.548	-0.000	0.000
6325	6326	6315	6316	3	1.046	-1.046	0.000	-0.000	-0.000	0.000
6289	6288	6287	6286	3	16.736	-16.736	0.000	-0.000	-0.000	0.000
6325	6319	6316	6315	3	1.046	-1.046	0.000	-0.000	-0.000	0.000
6325	6319	6316	6317	3	9.079	0.000	-9.079	-0.000	-0.000	0.000
6394	6393	6392	6391	3	30.334	0.000	-30.334	-0.000	-0.000	0.000
6393	6401	6402	6390	3	30.334	0.000	-30.334	-0.000	-0.000	0.000
6393	6392	6391	6390	3	30.334	0.000	-30.334	-0.000	-0.000	0.000
6414	6413	6412	6411	3	21.738	2.408	-16.966	-7.180	-0.000	0.000
6410	6409	6408	6407	3	21.738	2.408	-16.966	-7.180	-0.000	0.000
6411	6410	6409	6408	3	21.738	2.408	-16.966	-7.180	-0.000	0.000
6412	6411	6410	6409	3	21.738	2.408	-16.966	-7.180	-0.000	0.000
6413	6412	6411	6410	3	21.738	2.408	-16.966	-7.180	-0.000	0.000
6409	6408	6407	6406	3	58.576	0.000	-58.576	-0.000	-0.000	0.000
6408	6407	6406	6405	3	16.027	-4.391	-14.029	2.393	-0.000	0.000
6407	6406	6405	6404	3	30.334	0.000	-30.334	-0.000	-0.000	0.000
6416	6415	6414	6413	3	58.576	0.000	-58.576	-0.000	-0.000	0.000
6401	6393	6394	6400	3	9.079	0.000	-9.079	-0.000	-0.000	0.000
6400	6394	6393	6392	3	9.079	0.000	-9.079	-0.000	-0.000	0.000
6401	6393	6394	6395	3	9.079	0.000	-9.079	-0.000	-0.000	0.000
6395	6394	6393	6392	3	9.079	0.000	-9.079	-0.000	-0.000	0.000
6400	6394	6395	6396	3	30.334	0.000	-30.334	-0.000	-0.000	0.000
6401	6393	6392	6391	3	30.334	0.000	-30.334	-0.000	-0.000	0.000
6399	6400	6394	6393	3	30.334	0.000	-30.334	-0.000	-0.000	0.000
6402	6401	6393	6394	3	30.334	0.000	-30.334	-0.000	-0.000	0.000
6396	6395	6394	6393	3	30.334	0.000	-30.334	-0.000	-0.000	0.000
6399	6400	6394	6395	3	30.334	0.000	-30.334	-0.000	-0.000	0.000
6402	6401	6393	6392	3	30.334	0.000	-30.334	-0.000	-0.000	0.000
6442	6406	6407	6408	3	16.027	-4.391	-14.029	2.393	-0.000	0.000
6397	6399	6400	6394	3	30.334	0.000	-30.334	-0.000	-0.000	0.000
6397	6396	6395	6394	3	30.334	0.000	-30.334	-0.000	-0.000	0.000
6443	6442	6406	6407	3	30.334	0.000	-30.334	-0.000	-0.000	0.000
6432	6427	6428	6429	3	30.334	0.000	-30.334	-0.000	-0.000	0.000
6443	6442	6406	6405	3	30.334	0.000	-30.334	-0.000	-0.000	0.000
6402	6390	6391	6392	3	30.334	0.000	-30.334	-0.000	-0.000	0.000
6442	6443	6403	6404	3	30.334	0.000	-30.334	-0.000	-0.000	0.000
6432	6431	6430	6429	3	30.334	0.000	-30.334	-0.000	-0.000	0.000
6431	6430	6429	6428	3	30.334	0.000	-30.334	-0.000	-0.000	0.000
6430	6429	6428	6427	3	30.334	0.000	-30.334	-0.000	-0.000	0.000
6406	6405	6404	6403	3	30.334	0.000	-30.334	-0.000	-0.000	0.000
6406	6442	6443	6403	3	30.334	0.000	-30.334	-0.000	-0.000	0.000
6443	6403	6404	6405	3	30.334	0.000	-30.334	-0.000	-0.000	0.000
6442	6406	6405	6404	3	30.334	0.000	-30.334	-0.000	-0.000	0.000
6431	6432	6427	6428	3	30.334	0.000	-30.334	-0.000	-0.000	0.000
6400	6399	6397	6396	3	30.334	0.000	-30.334	-0.000	-0.000	0.000
6401	6402	6390	6391	3	30.334	0.000	-30.334	-0.000	-0.000	0.000
6430	6431	6432	6427	3	30.334	0.000	-30.334	-0.000	-0.000	0.000
6399	6397	6396	6395	3	30.334	0.000	-30.334	-0.000	-0.000	0.000
6431	6432	6427	6426	3	30.334	0.000	-30.334	-0.000	-0.000	0.000
6429	6428	6427	6426	3	30.334	0.000	-30.334	-0.000	-0.000	0.000
6442	6443	6403	6386	3	30.334	0.000	-30.334	-0.000	-0.000	0.000
6405	6404	6403	6386	3	30.334	0.000	-30.334	-0.000	-0.000	0.000
6400	6399	6397	6398	3	0.0	0.0	0.0	-0.0	-0.0	0.0
6392	6391	6390	6389	3	30.334	0.000	-30.334	-0.000	-0.000	0.000
6401	6402	6390	6389	3	30.334	0.000	-30.334	-0.000	-0.000	0.000
6432	6427	6426	6415	3	0.000	0.000	0.000	-0.000	-0.000	0.000
6428	6427	6426	6415	3	0.000	0.000	0.000	-0.000	-0.000	0.000
6432	6427	6426	6425	3	0.000	0.000	0.000	-0.000	-0.000	0.000
6428	6427	6426	6425	3	0.000	0.000	0.000	-0.000	-0.000	0.000
6443	6403	6386	6387	3	5.184	35.932	-14.355	-26.761	-0.000	0.000
6404	6403	6386	6387	3	5.184	35.932	-14.355	-26.761	-0.000	0.000
6404	6403	6386	6385	3	5.184	35.932	-14.355	-26.761	-0.000	0.000
6443	6403	6386	6385	3	5.184	35.932	-14.355	-26.761	-0.000	0.000
6391	6390	6389	6388	3	12.552	0.000	-12.552	-0.000	-0.000	0.000
6402	6390	6389	6388	3	12.552	0.000	-12.552	-0.000	-0.000	0.000
6427	6426	6415	6414	3	6.322	-2.485	0.707	-4.544	-0.000	0.000
6427	6426	6415	6416	3	0.527	-6.397	-1.695	7.565	-0.000	0.000
6427	6426	6425	6419	3	1.715	2.845	1.046	-5.607	-0.000	0.000
6403	6386	6387	6388	3	1.789	3.492	0.536	-5.816	-0.000	0.000
6390	6389	6388	6387	3	1.715	2.845	1.046	-5.607	-0.000	0.000
6433	6426	6427	6428	3	0.000	0.000	0.000	-0.000	-0.000	0.000
6433	6426	6427	6432	3	0.000	0.000	0.000	-0.000	-0.000	0.000
6433	6426	6415	6414	3	6.322	-2.485	0.707	-4.544	-0.000	0.000
6433	6426	6415	6416	3	0.527	-6.397	-1.695	7.565	-0.000	0.000
6433	6426	6425	6419	3	1.715	2.845	1.046	-5.607	-0.000	0.000
6415	6414	6413	6412	3	21.738	2.408	-16.966	-7.180	-0.000	0.000
6420	6419	6416	6415	3	21.738	2.408	-16.966	-7.180	-0.000	0.000
6420	6419	6416	6417	3	-0.778	-2.335	0.000	3.113	-0.000	0.000
6441	6409	6408	6407	3	58.576	0.000	-58.576	-0.000	-0.000	0.000
6437	6411	6410	6409	3	58.576	0.000	-58.576	-0.000	-0.000	0.000
6441	6409	6410	6411	3	58.576	0.000	-58.576	-0.000	-0.000	0.000
6437	6411	6412	6413	3	58.576	0.000	-58.576	-0.000	-0.000	0.000
6426	6415	6414	6413	3	-0.778	-2.335	0.000	3.113	-0.000	0.000
6426	6415	6416	6419	3	58.576	0.000	-58.576	-0.000	-0.000	0.000
6426	6415	6416	6417	3	58.576	0.000	-58.576	-0.000	-0.000	0.000
6438	6441	6409	6408	3	0.527	-6.397	-1.695	7.565	-0.000	0.000
6438	6437	6411	6412	3	0.527	-6.397	-1.695	7.565	-0.000	0.000
6438	6437	6411	6410	3	0.527	-6.397	-1.695	7.565	-0.000	0.000
6438	6441	6409	6410	3	0.527	-6.397	-1.695	7.565	-0.000	0.000
6441	6438	6437	6411	3	2.301	-1.464	0.837	-1.674	-0.000	0.000
6440	6438	6441	6409	3	2.301	-1.464	0.837	-1.674	-0.000	0.000
6437	6438	6441	6409	3	2.301	-1.464	0.837	-1.674	-0.000	0.000
6439	6438	6441	6409	3	2.301	-1.464	0.837	-1.674	-0.000	0.000
6440	6438	6437	6411	3	2.301	-1.464	0.837	-1.674	-0.000	0.000
6439	6438	6437	6411	3	2.301	-1.464	0.837	-1.674	-0.000	0.000
6388	6387	6386	6385	3	1.789	3.492	0.536	-5.816	-0.000	0.000
6426	6425	6419	6416	3	30.334	0.000	-30.334	-0.000	-0.000	0.000
6426	6425	6419	6420	3	30.334	0.000	-30.334	-0.000	-0.000	0.000
6419	6416	6415	6414	3	58.576	0.000	-58.576	-0.000	-0.000	0.000
6419	6425	6426	6415	3	1.715	2.845	1.046	-5.607	-0.000	0.000
6417	6416	6415	6414	3	58.576	0.000	-58.576	-0.000	-0.000	0.000
6421	6420	6419	6416	3	58.576	0.000	-58.576	-0.000	-0.000	0.000
6423	6420	6419	6416	3	58.576	0.000	-58.576	-0.000	-0.000	0.000
6434	6433	6426	6427	3	0.000	0.000	0.000	-0.000	-0.000	0.000
6435	6433	6426	6427	3	0.000	0.000	0.000	-0.000	-0.000	0.000
6436	6433	6426	6427	3	0.000	0.000	0.000	-0.000	-0.000	0.000
6435	6433	6426	6415	3	0.000	0.000	0.000	-0.000	-0.000	0.000
6434	6433	6426	6415	3	0.000	0.000	0.000	-0.000	-0.000	0.000
6436	6433	6426	6415	3	0.000	0.000	0.000	-0.000	-0.000	0.000
6435	6433	6426	6425	3	1.130	3.389	0.000	-4.519	-0.000	0.000
6436	6433	6426	6425	3	1.130	3.389	0.000	-4.519	-0.000	0.000
6434	6433	6426	6425	3	1.130	3.389	0.000	-4.519	-0.000	0.000
6464	6410	6409	6408	3	58.576	0.000	-58.576	-0.000	-0.000	0.000
6464	6410	6411	6412	3	58.576	0.000	-58.576	-0.000	-0.000	0.000
6464	6410	6411	6437	3	58.576	0.000	-58.576	-0.000	-0.000	0.000
6464	6410	6409	6441	3	58.576	0.000	-58.576	-0.000	-0.000	0.000
6453	6395	6394	6393	3	30.334	0.000	-30.334	-0.000	-0.000	0.000
6452	6392	6393	6394	3	30.334	0.000	-30.334	-0.000	-0.000	0.000
6458	6401	6393	6394	3	30.334	0.000	-30.334	-0.000	-0.000	0.000
6457	6400	6394	6393	3	30.334	0.000	-30.334	-0.000	-0.000	0.000
6457	6400	6394	6395	3	30.334	0.000	-30.334	-0.000	-0.000	0.000
6453	6395	6394	6400	3	30.334	0.000	-30.334	-0.000	-0.000	0.000
6452	6392	6393	6401	3	30.334	0.000	-30.334	-0.000	-0.000	0.000
6458	6401	6393	6392	3	30.334	0.000	-30.334	-0.000	-0.000	0.000
6451	6391	6392	6393	3	30.334	0.000	-30.334	-0.000	-0.000	0.000
6459	6402	6401	6393	3	30.334	0.000	-30.334	-0.000	-0.000	0.000
6454	6396	6395	6394	3	30.334	0.000	-30.334	-0.000	-0.000	0.000
6456	6399	6400	6394	3	30.334	0.000	-30.334	-0.000	-0.000	0.000
6461	6405	6406	6407	3	30.334	0.000	-30.334	-0.000	-0.000	0.000
6483	6442	6406	6407	3	30.334	0.000	-30.334	-0.000	-0.000	0.000
6468	6428	6429	6430	3	30.334	0.000	-30.334	-0.000	-0.000	0.000
6456	6399	6397	6396	3	30.334	0.000	-30.334	-0.000	-0.000	0.000
6471	6431	6430	6429	3	30.334	0.000	-30.334	-0.000	-0.000	0.000
6483	6442	6443	6403	3	30.334	0.000	-30.334	-0.000	-0.000	0.000
6469	6429	6428	6427	3	30.334	0.000	-30.334	-0.000	-0.000	0.000
6484	6443	6442	6406	3	30.334	0.000	-30.334	-0.000	-0.000	0.000
6470	6430	6429	6428	3	30.334	0.000	-30.334	-0.000	-0.000	0.000
6459	6402	6390	6391	3	30.334	0.000	-30.334	-0.000	-0.000	0.000
6458	6401	6402	6390	3	30.334	0.000	-30.334	-0.000	-0.000	0.000
6483	6442	6406	6405	3	30.334	0.000	-30.334	-0.000	-0.000	0.000
6484	6443	6403	6404	3	30.334	0.000	-30.334	-0.000	-0.000	0.000
6471	6431	6432	6427	3	30.334	0.000	-30.334	-0.000	-0.000	0.000
6468	6428	6427	6432	3	30.334	0.000	-30.334	-0.000	-0.000	0.000
6453	6395	6396	6397	3	30.334	0.000	-30.334	-0.000	-0.000	0.000
6454	6396	6397	6399	3	30.334	0.000	-30.334	-0.000	-0.000	0.000
6451	6391	6390	6402	3	30.334	0.000	-30.334	-0.000	-0.000	0.000
6460	6404	6403	6443	3	30.334	0.000	-30.334	-0.000	-0.000	0.000
6460	6404	6405	6406	3	30.334	0.000	-30.334	-0.000	-0.000	0.000
6457	6400	6399	6397	3	30.334	0.000	-30.334	-0.000	-0.000	0.000
6461	6405	6406	6442	3	30.334	0.000	-30.334	-0.000	-0.000	0.000
6470	6430	6431	6432	3	30.334	0.000	-30.334	-0.000	-0.000	0.000
6472	6432	6431	6430	3	30.334	0.000	-30.334	-0.000	-0.000	0.000
6469	6429	6430	6431	3	30.334	0.000	-30.334	-0.000	-0.000	0.000
6472	6432	6427	6428	3	30.334	0.000	-30.334	-0.000	-0.000	0.000
6452	6392	6391	6390	3	30.334	0.000	-30.334	-0.000	-0.000	0.000
6461	6405	6404	6403	3	30.334	0.000	-30.334	-0.000	-0.000	0.000
6472	6432	6427	6426	3	30.334	0.000	-30.334	-0.000	-0.000	0.000
6468	6428	6427	6426	3	30.334	0.000	-30.334	-0.000	-0.000	0.000
6461	6405	6404	6460	3	30.334	0.000	-30.334	-0.000	-0.000	0.000
6484	6443	6442	6483	3	30.334	0.000	-30.334	-0.000	-0.000	0.000
6470	6430	6429	6469	3	30.334	0.000	-30.334	-0.000	-0.000	0.000
6454	6396	6395	6453	3	30.334	0.000	-30.334	-0.000	-0.000	0.000
6459	6402	6401	6458	3	30.334	0.000	-30.334	-0.000	-0.000	0.000
6457	6400	6399	6456	3	30.334	0.000	-30.334	-0.000	-0.000	0.000
6469	6429	6428	6468	3	30.334	0.000	-30.334	-0.000	-0.000	0.000
6452	6392	6391	6451	3	30.334	0.000	-30.334	-0.000	-0.000	0.000
6471	6431	6430	6470	3	30.334	0.000	-30.334	-0.000	-0.000	0.000
6472	6432	6431	6471	3	30.334	0.000	-30.334	-0.000	-0.000	0.000
6484	6443	6403	6386	3	30.334	0.000	-30.334	-0.000	-0.000	0.000
6460	6404	6403	6386	3	30.334	0.000	-30.334	-0.000	-0.000	0.000
6454	6396	6397	6398	3	0.0	0.0	0.0	-0.0	-0.0	0.0
6456	6399	6397	6398	3	0.0	0.0	0.0	-0.0	-0.0	0.0
6451	6391	6390	6389	3	30.334	0.000	-30.334	-0.000	-0.000	0.000
6459	6402	6390	6389	3	30.334	0.000	-30.334	-0.000	-0.000	0.000
6465	6412	6411	6410	3	58.576	0.000	-58.576	-0.000	-0.000	0.000
6465	6412	6413	6414	3	58.576	0.000	-58.576	-0.000	-0.000	0.000
6467	6414	6413	6412	3	58.576	0.000	-58.576	-0.000	-0.000	0.000
6466	6413	6412	6411	3	58.576	0.000	-58.576	-0.000	-0.000	0.000
6463	6408	6409	6410	3	58.576	0.000	-58.576	-0.000	-0.000	0.000
6462	6407	6408	6409	3	58.576	0.000	-58.576	-0.000	-0.000	0.000
6463	6408	6407	6406	3	58.576	0.000	-58.576	-0.000	-0.000	0.000
6466	6413	6414	6415	3	58.576	0.000	-58.576	-0.000	-0.000	0.000
6465	6412	6411	6437	3	58.576	0.000	-58.576	-0.000	-0.000	0.000
6463	6408	6409	6441	3	58.576	0.000	-58.576	-0.000	-0.000	0.000
6463	6408	6407	6462	3	58.576	0.000	-58.576	-0.000	-0.000	0.000
6466	6413	6412	6465	3	58.576	0.000	-58.576	-0.000	-0.000	0.000
6467	6414	6413	6466	3	58.576	0.000	-58.576	-0.000	-0.000	0.000
6462	6407	6406	6442	3	-0.778	-2.335	0.000	3.113	-0.000	0.000
6462	6407	6406	6405	3	-0.778	-2.335	0.000	3.113	-0.000	0.000
6467	6414	6415	6416	3	58.576	0.000	-58.576	-0.000	-0.000	0.000
6467	6414	6415	6426	3	58.576	0.000	-58.576	-0.000	-0.000	0.000
6481	6441	6409	6408	3	-0.778	-2.335	0.000	3.113	-0.000	0.000
6481	6441	6409	6410	3	-0.778	-2.335	0.000	3.113	-0.000	0.000
6482	6441	6409	6408	3	-0.778	-2.335	0.000	3.113	-0.000	0.000
6474	6437	6411	6412	3	-0.778	-2.335	0.000	3.113	-0.000	0.000
6482	6441	6409	6410	3	-0.778	-2.335	0.000	3.113	-0.000	0.000
6473	6437	6411	6410	3	-0.778	-2.335	0.000	3.113	-0.000	0.000
6474	6437	6411	6410	3	-0.778	-2.335	0.000	3.113	-0.000	0.000
6473	6437	6411	6412	3	-0.778	-2.335	0.000	3.113	-0.000	0.000
6476	6439	6438	6441	3	0.628	1.883	0.000	-2.510	-0.000	0.000
6475	6439	6438	6440	3	0.628	1.883	0.000	-2.510	-0.000	0.000
6475	6439	6438	6437	3	0.628	1.883	0.000	-2.510	-0.000	0.000
6477	6439	6438	6440	3	0.628	1.883	0.000	-2.510	-0.000	0.000
6479	6440	6438	6437	3	0.628	1.883	0.000	-2.510	-0.000	0.000
6478	6440	6438	6437	3	0.628	1.883	0.000	-2.510	-0.000	0.000
6477	6439	6438	6437	3	0.628	1.883	0.000	-2.510	-0.000	0.000
6479	6440	6438	6439	3	0.628	1.883	0.000	-2.510	-0.000	0.000
6476	6439	6438	6437	3	0.628	1.883	0.000	-2.510	-0.000	0.000
6481	6441	6438	6437	3	0.628	1.883	0.000	-2.510	-0.000	0.000
6481	6441	6438	6439	3	0.628	1.883	0.000	-2.510	-0.000	0.000
6474	6437	6438	6439	3	0.628	1.883	0.000	-2.510	-0.000	0.000
6477	6439	6438	6441	3	0.628	1.883	0.000	-2.510	-0.000	0.000
6474	6437	6438	6440	3	0.628	1.883	0.000	-2.510	-0.000	0.000
6482	6441	6438	6439	3	0.628	1.883	0.000	-2.510	-0.000	0.000
6478	6440	6438	6441	3	0.628	1.883	0.000	-2.510	-0.000	0.000
6479	6440	6438	6441	3	0.628	1.883	0.000	-2.510	-0.000	0.000
6480	6440	6438	6437	3	0.628	1.883	0.000	-2.510	-0.000	0.000
6473	6437	6438	6440	3	0.628	1.883	0.000	-2.510	-0.000	0.000
6473	6437	6438	6439	3	0.628	1.883	0.000	-2.510	-0.000	0.000
6478	6440	6438	6439	3	0.628	1.883	0.000	-2.510	-0.000	0.000
6474	6437	6438	6441	3	0.628	1.883	0.000	-2.510	-0.000	0.000
6482	6441	6438	6440	3	0.628	1.883	0.000	-2.510	-0.000	0.000
6476	6439	6438	6440	3	0.628	1.883	0.000	-2.510	-0.000	0.000
6475	6439	6438	6441	3	0.628	1.883	0.000	-2.510	-0.000	0.000
6482	6441	6438	6437	3	0.628	1.883	0.000	-2.510	-0.000	0.000
6473	6437	6438	6441	3	0.628	1.883	0.000	-2.510	-0.000	0.000
6480	6440	6438	6439	3	0.628	1.883	0.000	-2.510	-0.000	0.000
6481	6441	6438	6440	3	0.628	1.883	0.000	-2.510	-0.000	0.000
6480	6440	6438	6441	3	0.628	1.883	0.000	-2.510	-0.000	0.000
6449	6388	6387	6448	3	0.628	1.883	0.000	-2.510	-0.000	0.000
6450	6388	6387	6447	3	0.628	1.883	0.000	-2.510	-0.000	0.000
6449	6388	6387	6447	3	0.628	1.883	0.000	-2.510	-0.000	0.000
6450	6388	6387	6448	3	0.628	1.883	0.000	-2.510	-0.000	0.000
6450	6388	6387	6386	3	-4.096	5.088	2.966	-3.958	-0.000	0.000
6449	6388	6387	6386	3	-4.096	5.088	2.966	-3.958	-0.000	0.000
6448	6387	6388	6389	3	0.979	2.937	0.000	-3.916	-0.000	0.000
6447	6387	6388	6389	3	0.979	2.937	0.000	-3.916	-0.000	0.000
6448	6387	6386	6403	3	1.172	3.515	0.000	-4.686	-0.000	0.000
6444	6385	6386	6403	3	1.172	3.515	0.000	-4.686	-0.000	0.000
6447	6387	6386	6403	3	1.172	3.515	0.000	-4.686	-0.000	0.000
6445	6385	6386	6403	3	1.172	3.515	0.000	-4.686	-0.000	0.000
6446	6385	6386	6403	3	1.172	3.515	0.000	-4.686	-0.000	0.000
6447	6387	6386	6385	3	1.172	3.515	0.000	-4.686	-0.000	0.000
6445	6385	6386	6387	3	1.172	3.515	0.000	-4.686	-0.000	0.000
6448	6387	6386	6385	3	1.172	3.515	0.000	-4.686	-0.000	0.000
6446	6385	6386	6387	3	1.172	3.515	0.000	-4.686	-0.000	0.000
6444	6385	6386	6387	3	1.172	3.515	0.000	-4.686	-0.000	0.000
6449	6388	6389	6390	3	1.590	4.770	0.000	-6.360	-0.000	0.000
6450	6388	6389	6390	3	1.590	4.770	0.000	-6.360	-0.000	0.000
6455	6398	6397	6399	3	0.0	0.0	0.0	-0.0	-0.0	0.0
6455	6398	6397	6396	3	0.0	0.0	0.0	-0.0	-0.0	0.0
6398	6397	6396	6395	3	0.0	0.0	0.0	-0.0	-0.0	0.0
6425	6426	6415	6414	3	2.874	0.582	2.092	-5.548	-0.000	0.000
6425	6426	6415	6416	3	1.046	-1.046	0.000	-0.000	-0.000	0.000
6389	6388	6387	6386	3	16.736	-16.736	0.000	-0.000	-0.000	0.000
6425	6419	6416	6415	3	1.046	-1.046	0.000	-0.000	-0.000	0.000
6425	6419	6416	6417	3	9.079	0.000	-9.079	-0.000	-0.000	0.000
6494	6493	6492	6491	3	30.334	0.000	-30.334	-0.000	-0.000	0.000
6493	6501	6502	6490	3	30.334	0.000	-30.334	-0.000	-0.000	0.000
6493	6492	6491	6490	3	30.334	0.000	-30.334	-0.000	-0.000	0.000
6514	6513	6512	6511	3	21.738	2.408	-16.966	-7.180	-0.000	0.000
6510	6509	6508	6507	3	21.738	2.408	-16.966	-7.180	-0.000	0.000
6511	6510	6509	6508	3	21.738	2.408	-16.966	-7.180	-0.000	0.000
6512	6511	6510	6509	3	21.738	2.408	-16.966	-7.180	-0.000	0.000
6513	6512	6511	6510	3	21.738	2.408	-16.966	-7.180	-0.000	0.000
6509	6508	6507	6506	3	58.576	0.000	-58.576	-0.000	-0.000	0.000
6508	6507	6506	6505	3	16.027	-4.391	-14.029	2.393	-0.000	0.000
6507	6506	6505	6504	3	30.334	0.000	-30.334	-0.000	-0.000	0.000
6516	6515	6514	6513	3	58.576	0.000	-58.576	-0.000	-0.000	0.000
6501	6493	6494	6500	3	9.079	0.000	-9.079	-0.000	-0.000	0.000
6500	6494	6493	6492	3	9.079	0.000	-9.079	-0.000	-0.000	0.000
6501	6493	6494	6495	3	9.079	0.000	-9.079	-0.000	-0.000	0.000
6495	6494	6493	6492	3	9.079	0.000	-9.079	-0.000	-0.000	0.000
6500	6494	6495	6496	3	30.334	0.000	-30.334	-0.000	-0.000	0.000
6501	6493	6492	6491	3	30.334	0.000	-30.334	-0.000	-0.000	0.000
6499	6500	6494	6493	3	30.334	0.000	-30.334	-0.000	-0.000	0.000
6502	6501	6493	6494	3	30.334	0.000	-30.334	-0.000	-0.000	0.000
6496	6495	6494	6493	3	30.334	0.000	-30.334	-0.000	-0.000	0.000
6499	6500	6494	6495	3	30.334	0.000	-30.334	-0.000	-0.000	0.000
6502	6501	6493	6492	3	30.334	0.000	-30.334	-0.000	-0.000	0.000
6542	6506	6507	6508	3	16.027	-4.391	-14.029	2.393	-0.000	0.000
6497	6499	6500	6494	3	30.334	0.000	-30.334	-0.000	-0.000	0.000
6497	6496	6495	6494	3	30.334	0.000	-30.334	-0.000	-0.000	0.000
6543	6542	6506	6507	3	30.334	0.000	-30.334	-0.000	-0.000	0.000
6532	6527	6528	6529	3	30.334	0.000	-30.334	-0.000	-0.000	0.000
6543	6542	6506	6505	3	30.334	0.000	-30.334	-0.000	-0.000	0.000
6502	6490	6491	6492	3	30.334	0.000	-30.334	-0.000	-0.000	0.000
6542	6543	6503	6504	3	30.334	0.000	-30.334	-0.000	-0.000	0.000
6532	6531	6530	6529	3	30.334	0.000	-30.334	-0.000	-0.000	0.000
6531	6530	6529	6528	3	30.334	0.000	-30.334	-0.000	-0.000	0.000
6530	6529	6528	6527	3	30.334	0.000	-30.334	-0.000	-0.000	0.000
6506	6505	6504	6503	3	30.334	0.000	-30.334	-0.000	-0.000	0.000
6506	6542	6543	6503	3	30.334	0.000	-30.334	-0.000	-0.000	0.000
6543	6503	6504	6505	3	30.334	0.000	-30.334	-0.000	-0.000	0.000
6542	6506	6505	6504	3	30.334	0.000	-30.334	-0.000	-0.000	0.000
6531	6532	6527	6528	3	30.334	0.000	-30.334	-0.000	-0.000	0.000
6500	6499	6497	6496	3	30.334	0.000	-30.334	-0.000	-0.000	0.000
6501	6502	6490	6491	3	30.334	0.000	-30.334	-0.000	-0.000	0.000
6530	6531	6532	6527	3	30.334	0.000	-30.334	-0.000	-0.000	0.000
6499	6497	6496	6495	3	30.334	0.000	-30.334	-0.000	-0.000	0.000
6531	6532	6527	6526	3	30.334	0.000	-30.334	-0.000	-0.000	0.000
6529	6528	6527	6526	3	30.334	0.000	-30.334	-0.000	-0.000	0.000
6542	6543	6503	6486	3	30.334	0.000	-30.334	-0.000	-0.000	0.000
6505	6504	6503	6486	3	30.334	0.000	-30.334	-0.000	-0.000	0.000
6500	6499	6497	6498	3	0.0	0.0	0.0	-0.0	-0.0	0.0
6492	6491	6490	6489	3	30.334	0.000	-30.334	-0.000	-0.000	0.000
6501	6502	6490	6489	3	30.334	0.000	-30.334	-0.000	-0.000	0.000
6532	6527	6526	6515	3	0.000	0.000	0.000	-0.000	-0.000	0.000
6528	6527	6526	6515	3	0.000	0.000	0.000	-0.000	-0.000	0.000
6532	6527	6526	6525	3	0.000	0.000	0.000	-0.000	-0.000	0.000
6528	6527	6526	6525	3	0.000	0.000	0.000	-0.000	-0.000	0.000
6543	6503	6486	6487	3	5.184	35.932	-14.355	-26.761	-0.000	0.000
6504	6503	6486	6487	3	5.184	35.932	-14.355	-26.761	-0.000	0.000
6504	6503	6486	6485	3	5.184	35.932	-14.355	-26.761	-0.000	0.000
6543	6503	6486	6485	3	5.184	35.932	-14.355	-26.761	-0.000	0.000
6491	6490	6489	6488	3	12.552	0.000	-12.552	-0.000	-0.000	0.000
6502	6490	6489	6488	3	12.552	0.000	-12.552	-0.000	-0.000	0.000
6527	6526	6515	6514	3	6.322	-2.485	0.707	-4.544	-0.000	0.000
6527	6526	6515	6516	3	0.527	-6.397	-1.695	7.565	-0.000	0.000
6527	6526	6525	6519	3	1.715	2.845	1.046	-5.607	-0.000	0.000
6503	6486	6487	6488	3	1.789	3.492	0.536	-5.816	-0.000	0.000
6490	6489	6488	6487	3	1.715	2.845	1.046	-5.607	-0.000	0.000
6533	6526	6527	6528	3	0.000	0.000	0.000	-0.000	-0.000	0.000
6533	6526	6527	6532	3	0.000	0.000	0.000	-0.000	-0.000	0.000
6533	6526	6515	6514	3	6.322	-2.485	0.707	-4.544	-0.000	0.000
6533	6526	6515	6516	3	0.527	-6.397	-1.695	7.565	-0.000	0.000
6533	6526	6525	6519	3	1.715	2.845	1.046	-5.607	-0.000	0.000
6515	6514	6513	6512	3	21.738	2.408	-16.966	-7.180	-0.000	0.000
6520	6519	6516	6515	3	21.738	2.408	-16.966	-7.180	-0.000	0.000
6520	6519	6516	6517	3	-0.778	-2.335	0.000	3.113	-0.000	0.000
6541	6509	6508	6507	3	58.576	0.000	-58.576	-0.000	-0.000	0.000
6537	6511	6510	6509	3	58.576	0.000	-58.576	-0.000	-0.000	0.000
6541	6509	6510	6511	3	58.576	0.000	-58.576	-0.000	-0.000	0.000
6537	6511	6512	6513	3	58.576	0.000	-58.576	-0.000	-0.000	0.000
6526	6515	6514	6513	3	-0.778	-2.335	0.000	3.113	-0.000	0.000
6526	6515	6516	6519	3	58.576	0.000	-58.576	-0.000	-0.000	0.000
6526	6515	6516	6517	3	58.576	0.000	-58.576	-0.000	-0.000	0.000
6538	6541	6509	6508	3	0.527	-6.397	-1.695	7.565	-0.000	0.000
6538	6537	6511	6512	3	0.527	-6.397	-1.695	7.565	-0.000	0.000
6538	6537	6511	6510	3	0.527	-6.397	-1.695	7.565	-0.000	0.000
6538	6541	6509	6510	3	0.527	-6.397	-1.695	7.565	-0.000	0.000
6541	6538	6537	6511	3	2.301	-1.464	0.837	-1.674	-0.000	0.000
6540	6538	6541	6509	3	2.301	-1.464	0.837	-1.674	-0.000	0.000
6537	6538	6541	6509	3	2.301	-1.464	0.837	-1.674	-0.000	0.000
6539	6538	6541	6509	3	2.301	-1.464	0.837	-1.674	-0.000	0.000
6540	6538	6537	6511	3	2.301	-1.464	0.837	-1.674	-0.000	0.000
6539	6538	6537	6511	3	2.301	-1.464	0.837	-1.674	-0.000	0.000
6488	6487	6486	6485	3	1.789	3.492	0.536	-5.816	-0.000	0.000
6526	6525	6519	6516	3	30.334	0.000	-30.334	-0.000	-0.000	0.000
6526	6525	6519	6520	3	30.334	0.000	-30.334	-0.000	-0.000	0.000
6519	6516	6515	6514	3	58.576	0.000	-58.576	-0.000	-0.000	0.000
6519	6525	6526	6515	3	1.715	2.845	1.046	-5.607	-0.000	0.000
6517	6516	6515	6514	3	58.576	0.000	-58.576	-0.000	-0.000	0.000
6521	6520	6519	6516	3	58.576	0.000	-58.576	-0.000	-0.000	0.000
6523	6520	6519	6516	3	58.576	0.000	-58.576	-0.000	-0.000	0.000
6534	6533	6526	6527	3	0.000	0.000	0.000	-0.000	-0.000	0.000
6535	6533	6526	6527	3	0.000	0.000	0.000	-0.000	-0.000	0.000
6536	6533	6526	6527	3	0.000	0.000	0.000	-0.000	-0.000	0.000
6535	6533	6526	6515	3	0.000	0.000	0.000	-0.000	-0.000	0.000
6534	6533	6526	6515	3	0.000	0.000	0.000	-0.000	-0.000	0.000
6536	6533	6526	6515	3	0.000	0.000	0.000	-0.000	-0.000	0.000
6535	6533	6526	6525	3	1.130	3.389	0.000	-4.519	-0.000	0.000
6536	6533	6526	6525	3	1.130	3.389	0.000	-4.519	-0.000	0.000
6534	6533	6526	6525	3	1.130	3.389	0.000	-4.519	-0.000	0.000
6564	6510	6509	6508	3	58.576	0.000	-58.576	-0.000	-0.000	0.000
6564	6510	6511	6512	3	58.576	0.000	-58.576	-0.000	-0.000	0.000
6564	6510	6511	6537	3	58.576	0.000	-58.576	-0.000	-0.000	0.000
6564	6510	6509	6541	3	58.576	0.000	-58.576	-0.000	-0.000	0.000
6553	6495	6494	6493	3	30.334	0.000	-30.334	-0.000	-0.000	0.000
6552	6492	6493	6494	3	30.334	0.000	-30.334	-0.000	-0.000	0.000
6558	6501	6493	6494	3	30.334	0.000	-30.334	-0.000	-0.000	0.000
6557	6500	6494	6493	3	30.334	0.000	-30.334	-0.000	-0.000	0.000
6557	6500	6494	6495	3	30.334	0.000	-30.334	-0.000	-0.000	0.000
6553	6495	6494	6500	3	30.334	0.000	-30.334	-0.000	-0.000	0.000
6552	6492	6493	6501	3	30.334	0.000	-30.334	-0.000	-0.000	0.000
6558	6501	6493	6492	3	30.334	0.000	-30.334	-0.000	-0.000	0.000
6551	6491	6492	6493	3	30.334	0.000	-30.334	-0.000	-0.000	0.000
6559	6502	6501	6493	3	30.334	0.000	-30.334	-0.000	-0.000	0.000
6554	6496	6495	6494	3	30.334	0.000	-30.334	-0.000	-0.000	0.000
6556	6499	6500	6494	3	30.334	0.000	-30.334	-0.000	-0.000	0.000
6561	6505	6506	6507	3	30.334	0.000	-30.334	-0.000	-0.000	0.000
6583	6542	6506	6507	3	30.334	0.000	-30.334	-0.000	-0.000	0.000
6568	6528	6529	6530	3	30.334	0.000	-30.334	-0.000	-0.000	0.000
6556	6499	6497	6496	3	30.334	0.000	-30.334	-0.000	-0.000	0.000
6571	6531	6530	6529	3	30.334	0.000	-30.334	-0.000	-0.000	0.000
6583	6542	6543	6503	3	30.334	0.000	-30.334	-0.000	-0.000	0.000
6569	6529	6528	6527	3	30.334	0.000	-30.334	-0.000	-0.000	0.000
6584	6543	6542	6506	3	30.334	0.000	-30.334	-0.000	-0.000	0.000
6570	6530	6529	6528	3	30.334	0.000	-30.334	-0.000	-0.000	0.000
6559	6502	6490	6491	3	30.334	0.000	-30.334	-0.000	-0.000	0.000
6558	6501	6502	6490	3	30.334	0.000	-30.334	-0.000	-0.000	0.000
6583	6542	6506	6505	3	30.334	0.000	-30.334	-0.000	-0.000	0.000
6584	6543	6503	6504	3	30.334	0.000	-30.334	-0.000	-0.000	0.000
6571	6531	6532	6527	3	30.334	0.000	-30.334	-0.000	-0.000	0.000
6568	6528	6527	6532	3	30.334	0.000	-30.334	-0.000	-0.000	0.000
6553	6495	6496	6497	3	30.334	0.000	-30.334	-0.000	-0.000	0.000
6554	6496	6497	6499	3	30.334	0.000	-30.334	-0.000	-0.000	0.000
6551	6491	6490	6502	3	30.334	0.000	-30.334	-0.000	-0.000	0.000
6560	6504	6503	6543	3	30.334	0.000	-30.334	-0.000	-0.000	0.000
6560	6504	6505	6506	3	30.334	0.000	-30.334	-0.000	-0.000	0.000
6557	6500	6499	6497	3	30.334	0.000	-30.334	-0.000	-0.000	0.000
6561	6505	6506	6542	3	30.334	0.000	-30.334	-0.000	-0.000	0.000
6570	6530	6531	6532	3	30.334	0.000	-30.334	-0.000	-0.000	0.000
6572	6532	6531	6530	3	30.334	0.000	-30.334	-0.000	-0.000	0.000
6569	6529	6530	6531	3	30.334	0.000	-30.334	-0.000	-0.000	0.000
6572	6532	6527	6528	3	30.334	0.000	-30.334	-0.000	-0.000	0.000
6552	6492	6491	6490	3	30.334	0.000	-30.334	-0.000	-0.000	0.000
6561	6505	6504	6503	3	30.334	0.000	-30.334	-0.000	-0.000	0.000
6572	6532	6527	6526	3	30.334	0.000	-30.334	-0.000	-0.000	0.000
6568	6528	6527	6526	3	30.334	0.000	-30.334	-0.000	-0.000	0.000
6561	6505	6504	6560	3	30.334	0.000	-30.334	-0.000	-0.000	0.000
6584	6543	6542	6583	3	30.334	0.000	-30.334	-0.000	-0.000	0.000
6570	6530	6529	6569	3	30.334	0.000	-30.334	-0.000	-0.000	0.000
6554	6496	6495	6553	3	30.334	0.000	-30.334	-0.000	-0.000	0.000
6559	6502	6501	6558	3	30.334	0.000	-30.334	-0.000	-0.000	0.000
6557	6500	6499	6556	3	30.334	0.000	-30.334	-0.000	-0.000	0.000
6569	6529	6528	6568	3	30.334	0.000	-30.334	-0.000	-0.000	0.000
6552	6492	6491	6551	3	30.334	0.000	-30.334	-0.000	-0.000	0.000
6571	6531	6530	6570	3	30.334	0.000	-30.334	-0.000	-0.000	0.000
6572	6532	6531	6571	3	30.334	0.000	-30.334	-0.000	-0.000	0.000
6584	6543	6503	6486	3	30.334	0.000	-30.334	-0.000	-0.000	0.000
6560	6504	6503	6486	3	30.334	0.000	-30.334	-0.000	-0.000	0.000
6554	6496	6497	6498	3	0.0	0.0	0.0	-0.0	-0.0	0.0
6556	6499	6497	6498	3	0.0	0.0	0.0	-0.0	-0.0	0.0
6551	6491	6490	6489	3	30.334	0.000	-30.334	-0.000	-0.000	0.000
6559	6502	6490	6489	3	30.334	0.000	-30.334	-0.000	-0.000	0.000
6565	6512	6511	6510	3	58.576	0.000	-58.576	-0.000	-0.000	0.000
6565	6512	6513	6514	3	58.576	0.000	-58.576	-0.000	-0.000	0.000
6567	6514	6513	6512	3	58.576	0.000	-58.576	-0.000	-0.000	0.000
6566	6513	6512	6511	3	58.576	0.000	-58.576	-0.000	-0.000	0.000
6563	6508	6509	6510	3	58.576	0.000	-58.576	-0.000	-0.000	0.000
6562	6507	6508	6509	3	58.576	0.000	-58.576	-0.000	-0.000	0.000
6563	6508	6507	6506	3	58.576	0.000	-58.576	-0.000	-0.000	0.000
6566	6513	6514	6515	3	58.576	0.000	-58.576	-0.000	-0.000	0.000
6565	6512	6511	6537	3	58.576	0.000	-58.576	-0.000	-0.000	0.000
6563	6508	6509	6541	3	58.576	0.000	-58.576	-0.000	-0.000	0.000
6563	6508	6507	6562	3	58.576	0.000	-58.576	-0.000	-0.000	0.000
6566	6513	6512	6565	3	58.576	0.000	-58.576	-0.000	-0.000	0.000
6567	6514	6513	6566	3	58.576	0.000	-58.576	-0.000	-0.000	0.000
6562	6507	6506	6542	3	-0.778	-2.335	0.000	3.113	-0.000	0.000
6562	6507	6506	6505	3	-0.778	-2.335	0.000	3.113	-0.000	0.000
6567	6514	6515	6516	3	58.576	0.000	-58.576	-0.000	-0.000	0.000
6567	6514	6515	6526	3	58.576	0.000	-58.576	-0.000	-0.000	0.000
6581	6541	6509	6508	3	-0.778	-2.335	0.000	3.113	-0.000	0.000
6581	6541	6509	6510	3	-0.778	-2.335	0.000	3.113	-0.000	0.000
6582	6541	6509	6508	3	-0.778	-2.335	0.000	3.113	-0.000	0.000
6574	6537	6511	6512	3	-0.778	-2.335	0.000	3.113	-0.000	0.000
6582	6541	6509	6510	3	-0.778	-2.335	0.000	3.113	-0.000	0.000
6573	6537	6511	6510	3	-0.778	-2.335	0.000	3.113	-0.000	0.000
6574	6537	6511	6510	3	-0.778	-2.335	0.000	3.113	-0.000	0.000
6573	6537	6511	6512	3	-0.778	-2.335	0.000	3.113	-0.000	0.000
6576	6539	6538	6541	3	0.628	1.883	0.000	-2.510	-0.000	0.000
6575	6539	6538	6540	3	0.628	1.883	0.000	-2.510	-0.000	0.000
6575	6539	6538	6537	3	0.628	1.883	0.000	-2.510	-0.000	0.000
6577	6539	6538	6540	3	0.628	1.883	0.000	-2.510	-0.000	0.000
6579	6540	6538	6537	3	0.628	1.883	0.000	-2.510	-0.000	0.000
6578	6540	6538	6537	3	0.628	1.883	0.000	-2.510	-0.000	0.000
6577	6539	6538	6537	3	0.628	1.883	0.000	-2.510	-0.000	0.000
6579	6540	6538	6539	3	0.628	1.883	0.000	-2.510	-0.000	0.000
6576	6539	6538	6537	3	0.628	1.883	0.000	-2.510	-0.000	0.000
6581	6541	6538	6537	3	0.628	1.883	0.000	-2.510	-0.000	0.000
6581	6541	6538	6539	3	0.628	1.883	0.000	-2.510	-0.000	0.000
6574	6537	6538	6539	3	0.628	1.883	0.000	-2.510	-0.000	0.000
6577	6539	6538	6541	3	0.628	1.883	0.000	-2.510	-0.000	0.000
6574	6537	6538	6540	3	0.628	1.883	0.000	-2.510	-0.000	0.000
6582	6541	6538	6539	3	0.628	1.883	0.000	-2.510	-0.000	0.000
6578	6540	6538	6541	3	0.628	1.883	0.000	-2.510	-0.000	0.000
6579	6540	6538	6541	3	0.628	1.883	0.000	-2.510	-0.000	0.000
6580	6540	6538	6537	3	0.628	1.883	0.000	-2.510	-0.000	0.000
6573	6537	6538	6540	3	0.628	1.883	0.000	-2.510	-0.000	0.000
6573	6537	6538	6539	3	0.628	1.883	0.000	-2.510	-0.000	0.000
6578	6540	6538	6539	3	0.628	1.883	0.000	-2.510	-0.000	0.000
6574	6537	6538	6541	3	0.628	1.883	0.000	-2.510	-0.000	0.000
6582	6541	6538	6540	3	0.628	1.883	0.000	-2.510	-0.000	0.000
6576	6539	6538	6540	3	0.628	1.883	0.000	-2.510	-0.000	0.000
6575	6539	6538	6541	3	0.628	1.883	0.000	-2.510	-0.000	0.000
6582	6541	6538	6537	3	0.628	1.883	0.000	-2.510	-0.000	0.000
6573	6537	6538	6541	3	0.628	1.883	0.000	-2.510	-0.000	0.000
6580	6540	6538	6539	3	0.628	1.883	0.000	-2.510	-0.000	0.000
6581	6541	6538	6540	3	0.628	1.883	0.000	-2.510	-0.000	0.000
6580	6540	6538	6541	3	0.628	1.883	0.000	-2.510	-0.000	0.000
6549	6488	6487	6548	3	0.628	1.883	0.000	-2.510	-0.000	0.000
6550	6488	6487	6547	3	0.628	1.883	0.000	-2.510	-0.000	0.000
6549	6488	6487	6547	3	0.628	1.883	0.000	-2.510	-0.000	0.000
6550	6488	6487	6548	3	0.628	1.883	0.000	-2.510	-0.000	0.000
6550	6488	6487	6486	3	-4.096	5.088	2.966	-3.958	-0.000	0.000
6549	6488	6487	6486	3	-4.096	5.088	2.966	-3.958	-0.000	0.000
6548	6487	6488	6489	3	0.979	2.937	0.000	-3.916	-0.000	0.000
6547	6487	6488	6489	3	0.979	2.937	0.000	-3.916	-0.000	0.000
6548	6487	6486	6503	3	1.172	3.515	0.000	-4.686	-0.000	0.000
6544	6485	6486	6503	3	1.172	3.515	0.000	-4.686	-0.000	0.000
6547	6487	6486	6503	3	1.172	3.515	0.000	-4.686	-0.000	0.000
6545	6485	6486	6503	3	1.172	3.515	0.000	-4.686	-0.000	0.000
6546	6485	6486	6503	3	1.172	3.515	0.000	-4.686	-0.000	0.000
6547	6487	6486	6485	3	1.172	3.515	0.000	-4.686	-0.000	0.000
6545	6485	6486	6487	3	1.172	3.515	0.000	-4.686	-0.000	0.000
6548	6487	6486	6485	3	1.172	3.515	0.000	-4.686	-0.000	0.000
6546	6485	6486	6487	3	1.172	3.515	0.000	-4.686	-0.000	0.000
6544	6485	6486	6487	3	1.172	3.515	0.000	-4.686	-0.000	0.000
6549	6488	6489	6490	3	1.590	4.770	0.000	-6.360	-0.000	0.000
6550	6488	6489	6490	3	1.590	4.770	0.000	-6.360	-0.000	0.000
6555	6498	6497	6499	3	0.0	0.0	0.0	-0.0	-0.0	0.0
6555	6498	6497	6496	3	0.0	0.0	0.0	-0.0	-0.0	0.0
6498	6497	6496	6495	3	0.0	0.0	0.0	-0.0	-0.0	0.0
6525	6526	6515	6514	3	2.874	0.582	2.092	-5.548	-0.000	0.000
6525	6526	6515	6516	3	1.046	-1.046	0.000	-0.000	-0.000	0.000
6489	6488	6487	6486	3	16.736	-16.736	0.000	-0.000	-0.000	0.000
6525	6519	6516	6515	3	1.046	-1.046	0.000	-0.000	-0.000	0.000
6525	6519	6516	6517	3	9.079	0.000	-9.079	-0.000	-0.000	0.000
6594	6593	6592	6591	3	30.334	0.000	-30.334	-0.000	-0.000	0.000
6593	6601	6602	6590	3	30.334	0.000	-30.334	-0.000	-0.000	0.000
6593	6592	6591	6590	3	30.334	0.000	-30.334	-0.000	-0.000	0.000
6614	6613	6612	6611	3	21.738	2.408	-16.966	-7.180	-0.000	0.000
6610	6609	6608	6607	3	21.738	2.408	-16.966	-7.180	-0.000	0.000
6611	6610	6609	6608	3	21.738	2.408	-16.966	-7.180	-0.000	0.000
6612	6611	6610	6609	3	21.738	2.408	-16.966	-7.180	-0.000	0.000
6613	6612	6611	6610	3	21.738	2.408	-16.966	-7.180	-0.000	0.000
6609	6608	6607	6606	3	58.576	0.000	-58.576	-0.000	-0.000	0.000
6608	6607	6606	6605	3	16.027	-4.391	-14.029	2.393	-0.000	0.000
6607	6606	6605	6604	3	30.334	0.000	-30.334	-0.000	-0.000	0.000
6616	6615	6614	6613	3	58.576	0.000	-58.576	-0.000	-0.000	0.000
6601	6593	6594	6600	3	9.079	0.000	-9.079	-0.000	-0.000	0.000
6600	6594	6593	6592	3	9.079	0.000	-9.079	-0.000	-0.000	0.000
6601	6593	6594	6595	3	9.079	0.000	-9.079	-0.000	-0.000	0.000
6595	6594	6593	6592	3	9.079	0.000	-9.079	-0.000	-0.000	0.000
6600	6594	6595	6596	3	30.334	0.000	-30.334	-0.000	-0.000	0.000
6601	6593	6592	6591	3	30.334	0.000	-30.334	-0.000	-0.000	0.000
6599	6600	6594	6593	3	30.334	0.000	-30.334	-0.000	-0.000	0.000
6602	6601	6593	6594	3	30.334	0.000	-30.334	-0.000	-0.000	0.000
6596	6595	6594	6593	3	30.334	0.000	-30.334	-0.000	-0.000	0.000
6599	6600	6594	6595	3	30.334	0.000	-30.334	-0.000	-0.000	0.000
6602	6601	6593	6592	3	30.334	0.000	-30.334	-0.000	-0.000	0.000
6642	6606	6607	6608	3	16.027	-4.391	-14.029	2.393	-0.000	0.000
6597	6599	6600	6594	3	30.334	0.000	-30.334	-0.000	-0.000	0.000
6597	6596	6595	6594	3	30.334	0.000	-30.334	-0.000	-0.000	0.000
6643	6642	6606	6607	3	30.334	0.000	-30.334	-0.000	-0.000	0.000
6632	6627	6628	6629	3	30.334	0.000	-30.334	-0.000	-0.000	0.000
6643	6642	6606	6605	3	30.334	0.000	-30.334	-0.000	-0.000	0.000
6602	6590	6591	6592	3	30.334	0.000	-30.334	-0.000	-0.000	0.000
6642	6643	6603	6604	3	30.334	0.000	-30.334	-0.000	-0.000	0.000
6632	6631	6630	6629	3	30.334	0.000	-30.334	-0.000	-0.000	0.000
6631	6630	6629	6628	3	30.334	0.000	-30.334	-0.000	-0.000	0.000
6630	6629	6628	6627	3	30.334	0.000	-30.334	-0.000	-0.000	0.000
6606	6605	6604	6603	3	30.334	0.000	-30.334	-0.000	-0.000	0.000
6606	6642	6643	6603	3	30.334	0.000	-30.334	-0.000	-0.000	0.000
6643	6603	6604	6605	3	30.334	0.000	-30.334	-0.000	-0.000	0.000
6642	6606	6605	6604	3	30.334	0.000	-30.334	-0.000	-0.000	0.000
6631	6632	6627	6628	3	30.334	0.000	-30.334	-0.000	-0.000	0.000
6600	6599	6597	6596	3	30.334	0.000	-30.334	-0.000	-0.000	0.000
6601	6602	6590	6591	3	30.334	0.000	-30.334	-0.000	-0.000	0.000
6630	6631	6632	6627	3	30.334	0.000	-30.334	-0.000	-0.000	0.000
6599	6597	6596	6595	3	30.334	0.000	-30.334	-0.000	-0.000	0.000
6631	6632	6627	6626	3	30.334	0.000	-30.334	-0.000	-0.000	0.000
6629	6628	6627	6626	3	30.334	0.000	-30.334	-0.000	-0.000	0.000
6642	6643	6603	6586	3	30.334	0.000	-30.334	-0.000	-0.000	0.000
6605	6604	6603	6586	3	30.334	0.000	-30.334	-0.000	-0.000	0.000
6600	6599	6597	6598	3	0.0	0.0	0.0	-0.0	-0.0	0.0
6592	6591	6590	6589	3	30.334	0.000	-30.334	-0.000	-0.000	0.000
6601	6602	6590	6589	3	30.334	0.000	-30.334	-0.000	-0.000	0.000
6632	6627	6626	6615	3	0.000	0.000	0.000	-0.000	-0.000	0.000
6628	6627	6626	6615	3	0.000	0.000	0.000	-0.000	-0.000	0.000
6632	6627	6626	6625	3	0.000	0.000	0.000	-0.000	-0.000	0.000
6628	6627	6626	6625	3	0.000	0.000	0.000	-0.000	-0.000	0.000
6643	6603	6586	6587	3	5.184	35.932	-14.355	-26.761	-0.000	0.000
6604	6603	6586	6587	3	5.184	35.932	-14.355	-26.761	-0.000	0.000
6604	6603	6586	6585	3	5.184	35.932	-14.355	-26.761	-0.000	0.000
6643	6603	6586	6585	3	5.184	35.932	-14.355	-26.761	-0.000	0.000
6591	6590	6589	6588	3	12.552	0.000	-12.552	-0.000	-0.000	0.000
6602	6590	6589	6588	3	12.552	0.000	-12.552	-0.000	-0.000	0.000
6627	6626	6615	6614	3	6.322	-2.485	0.707	-4.544	-0.000	0.000
6627	6626	6615	6616	3	0.527	-6.397	-1.695	7.565	-0.000	0.000
6627	6626	6625	6619	3	1.715	2.845	1.046	-5.607	-0.000	0.000
6603	6586	6587	6588	3	1.789	3.492	0.536	-5.816	-0.000	0.000
6590	6589	6588	6587	3	1.715	2.845	1.046	-5.607	-0.000	0.000
6633	6626	6627	6628	3	0.000	0.000	0.000	-0.000	-0.000	0.000
6633	6626	6627	6632	3	0.000	0.000	0.000	-0.000	-0.000	0.000
6633	6626	6615	6614	3	6.322	-2.485	0.707	-4.544	-0.000	0.000
6633	6626	6615	6616	3	0.527	-6.397	-1.695	7.565	-0.000	0.000
6633	6626	6625	6619	3	1.715	2.845	1.046	-5.607	-0.000	0.000
6615	6614	6613	6612	3	21.738	2.408	-16.966	-7.180	-0.000	0.000
6620	6619	6616	6615	3	21.738	2.408	-16.966	-7.180	-0.000	0.000
6620	6619	6616	6617	3	-0.778	-2.335	0.000	3.113	-0.000	0.000
6641	6609	6608	6607	3	58.576	0.000	-58.576	-0.000	-0.000	0.000
6637	6611	6610	6609	3	58.576	0.000	-58.576	-0.000	-0.000	0.000
6641	6609	6610	6611	3	58.576	0.000	-58.576	-0.000	-0.000	0.000
6637	6611	6612	6613	3	58.576	0.000	-58.576	-0.000	-0.000	0.000
6626	6615	6614	6613	3	-0.778	-2.335	0.000	3.113	-0.000	0.000
6626	6615	6616	6619	3	58.576	0.000	-58.576	-0.000	-0.000	0.000
6626	6615	6616	6617	3	58.576	0.000	-58.576	-0.000	-0.000	0.000
6638	6641	6609	6608	3	0.527	-6.397	-1.695	7.565	-0.000	0.000
6638	6637	6611	6612	3	0.527	-6.397	-1.695	7.565	-0.000	0.000
6638	6637	6611	6610	3	0.527	-6.397	-1.695	7.565	-0.000	0.000
6638	6641	6609	6610	3	0.527	-6.397	-1.695	7.565	-0.000	0.000
6641	6638	6637	6611	3	2.301	-1.464	0.837	-1.674	-0.000	0.000
6640	6638	6641	6609	3	2.301	-1.464	0.837	-1.674	-0.000	0.000
6637	6638	6641	6609	3	2.301	-1.464	0.837	-1.674	-0.000	0.000
6639	6638	6641	6609	3	2.301	-1.464	0.837	-1.674	-0.000	0.000
6640	6638	6637	6611	3	2.301	-1.464	0.837	-1.674	-0.000	0.000
6639	6638	6637	6611	3	2.301	-1.464	0.837	-1.674	-0.000	0.000
6588	6587	6586	6585	3	1.789	3.492	0.536	-5.816	-0.000	0.000
6626	6625	6619	6616	3	30.334	0.000	-30.334	-0.000	-0.000	0.000
6626	6625	6619	6620	3	30.334	0.000	-30.334	-0.000	-0.000	0.000
6619	6616	6615	6614	3	58.576	0.000	-58.576	-0.000	-0.000	0.000
6619	6625	6626	6615	3	1.715	2.845	1.046	-5.607	-0.000	0.000
6617	6616	6615	6614	3	58.576	0.000	-58.576	-0.000	-0.000	0.000
6621	6620	6619	6616	3	58.576	0.000	-58.576	-0.000	-0.000	0.000
6623	6620	6619	6616	3	58.576	0.000	-58.576	-0.000	-0.000	0.000
6634	6633	6626	6627	3	0.000	0.000	0.000	-0.000	-0.000	0.000
6635	6633	6626	6627	3	0.000	0.000	0.000	-0.000	-0.000	0.000
6636	6633	6626	6627	3	0.000	0.000	0.000	-0.000	-0.000	0.000
6635	6633	6626	6615	3	0.000	0.000	0.000	-0.000	-0.000	0.000
6634	6633	6626	6615	3	0.000	0.000	0.000	-0.000	-0.000	0.000
6636	6633	6626	6615	3	0.000	0.000	0.000	-0.000	-0.000	0.000
6635	6633	6626	6625	3	1.130	3.389	0.000	-4.519	-0.000	0.000
6636	6633	6626	6625	3	1.130	3.389	0.000	-4.519	-0.000	0.000
6634	6633	6626	6625	3	1.130	3.389	0.000	-4.519	-0.000	0.000
6664	6610	6609	6608	3	58.576	0.000	-58.576	-0.000	-0.000	0.000
6664	6610	6611	6612	3	58.576	0.000	-58.576	-0.000	-0.000	0.000
6664	6610	6611	6637	3	58.576	0.000	-58.576	-0.000	-0.000	0.000
6664	6610	6609	6641	3	58.576	0.000	-58.576	-0.000	-0.000	0.000
6653	6595	6594	6593	3	30.334	0.000	-30.334	-0.000	-0.000	0.000
6652	6592	6593	6594	3	30.334	0.000	-30.334	-0.000	-0.000	0.000
6658	6601	6593	6594	3	30.334	0.000	-30.334	-0.000	-0.000	0.000
6657	6600	6594	6593	3	30.334	0.000	-30.334	-0.000	-0.000	0.000
6657	6600	6594	6595	3	30.334	0.000	-30.334	-0.000	-0.000	0.000
6653	6595	6594	6600	3	30.334	0.000	-30.334	-0.000	-0.000	0.000
6652	6592	6593	6601	3	30.334	0.000	-30.334	-0.000	-0.000	0.000
6658	6601	6593	6592	3	30.334	0.000	-30.334	-0.000	-0.000	0.000
6651	6591	6592	6593	3	30.334	0.000	-30.334	-0.000	-0.000	0.000
6659	6602	6601	6593	3	30.334	0.000	-30.334	-0.000	-0.000	0.000
6654	6596	6595	6594	3	30.334	0.000	-30.334	-0.000	-0.000	0.000
6656	6599	6600	6594	3	30.334	0.000	-30.334	-0.000	-0.000	0.000
6661	6605	6606	6607	3	30.334	0.000	-30.334	-0.000	-0.000	0.000
6683	6642	6606	6607	3	30.334	0.000	-30.334	-0.000	-0.000	0.000
6668	6628	6629	6630	3	30.334	0.000	-30.334	-0.000	-0.000	0.000
6656	6599	6597	6596	3	30.334	0.000	-30.334	-0.000	-0.000	0.000
6671	6631	6630	6629	3	30.334	0.000	-30.334	-0.000	-0.000	0.000
6683	6642	6643	6603	3	30.334	0.000	-30.334	-0.000	-0.000	0.000
6669	6629	6628	6627	3	30.334	0.000	-30.334	-0.000	-0.000	0.000
6684	6643	6642	6606	3	30.334	0.000	-30.334	-0.000	-0.000	0.000
6670	6630	6629	6628	3	30.334	0.000	-30.334	-0.000	-0.000	0.000
6659	6602	6590	6591	3	30.334	0.000	-30.334	-0.000	-0.000	0.000
6658	6601	6602	6590	3	30.334	0.000	-30.334	-0.000	-0.000	0.000
6683	6642	6606	6605	3	30.334	0.000	-30.334	-0.000	-0.000	0.000
6684	6643	6603	6604	3	30.334	0.000	-30.334	-0.000	-0.000	0.000
6671	6631	6632	6627	3	30.334	0.000	-30.334	-0.000	-0.000	0.000
6668	6628	6627	6632	3	30.334	0.000	-30.334	-0.000	-0.000	0.000
6653	6595	6596	6597	3	30.334	0.000	-30.334	-0.000	-0.000	0.000
6654	6596	6597	6599	3	30.334	0.000	-30.334	-0.000	-0.000	0.000
6651	6591	6590	6602	3	30.334	0.000	-30.334	-0.000	-0.000	0.000
6660	6604	6603	6643	3	30.334	0.000	-30.334	-0.000	-0.000	0.000
6660	6604	6605	6606	3	30.334	0.000	-30.334	-0.000	-0.000	0.000
6657	6600	6599	6597	3	30.334	0.000	-30.334	-0.000	-0.000	0.000
6661	6605	6606	6642	3	30.334	0.000	-30.334	-0.000	-0.000	0.000
6670	6630	6631	6632	3	30.334	0.000	-30.334	-0.000	-0.000	0.000
6672	6632	6631	6630	3	30.334	0.000	-30.334	-0.000	-0.000	0.000
6669	6629	6630	6631	3	30.334	0.000	-30.334	-0.000	-0.000	0.000
6672	6632	6627	6628	3	30.334	0.000	-30.334	-0.000	-0.000	0.000
6652	6592	6591	6590	3	30.334	0.000	-30.334	-0.000	-0.000	0.000
6661	6605	6604	6603	3	30.334	0.000	-30.334	-0.000	-0.000	0.000
6672	6632	6627	6626	3	30.334	0.000	-30.334	-0.000	-0.000	0.000
6668	6628	6627	6626	3	30.334	0.000	-30.334	-0.000	-0.000	0.000
6661	6605	6604	6660	3	30.334	0.000	-30.334	-0.000	-0.000	0.000
6684	6643	6642	6683	3	30.334	0.000	-30.334	-0.000	-0.000	0.000
6670	6630	6629	6669	3	30.334	0.000	-30.334	-0.000	-0.000	0.000
6654	6596	6595	6653	3	30.334	0.000	-30.334	-0.000	-0.000	0.000
6659	6602	6601	6658	3	30.334	0.000	-30.334	-0.000	-0.000	0.000
6657	6600	6599	6656	3	30.334	0.000	-30.334	-0.000	-0.000	0.000
6669	6629	6628	6668	3	30.334	0.000	-30.334	-0.000	-0.000	0.000
6652	6592	6591	6651	3	30.334	0.000	-30.334	-0.000	-0.000	0.000
6671	6631	6630	6670	3	30.334	0.000	-30.334	-0.000	-0.000	0.000
6672	6632	6631	6671	3	30.334	0.000	-30.334	-0.000	-0.000	0.000
6684	6643	6603	6586	3	30.334	0.000	-30.334	-0.000	-0.000	0.000
6660	6604	6603	6586	3	30.334	0.000	-30.334	-0.000	-0.000	0.000
6654	6596	6597	6598	3	0.0	0.0	0.0	-0.0	-0.0	0.0
6656	6599	6597	6598	3	0.0	0.0	0.0	-0.0	-0.0	0.0
6651	6591	6590	6589	3	30.334	0.000	-30.334	-0.000	-0.000	0.000
6659	6602	6590	6589	3	30.334	0.000	-30.334	-0.000	-0.000	0.000
6665	6612	6611	6610	3	58.576	0.000	-58.576	-0.000	-0.000	0.000
6665	6612	6613	6614	3	58.576	0.000	-58.576	-0.000	-0.000	0.000
6667	6614	6613	6612	3	58.576	0.000	-58.576	-0.000	-0.000	0.000
6666	6613	6612	6611	3	58.576	0.000	-58.576	-0.000	-0.000	0.000
6663	6608	6609	6610	3	58.576	0.000	-58.576	-0.000	-0.000	0.000
6662	6607	6608	6609	3	58.576	0.000	-58.576	-0.000	-0.000	0.000
6663	6608	6607	6606	3	58.576	0.000	-58.576	-0.000	-0.000	0.000
6666	6613	6614	6615	3	58.576	0.000	-58.576	-0.000	-0.000	0.000
6665	6612	6611	6637	3	58.576	0.000	-58.576	-0.000	-0.000	0.000
6663	6608	6609	6641	3	58.576	0.000	-58.576	-0.000	-0.000	0.000
6663	6608	6607	6662	3	58.576	0.000	-58.576	-0.000	-0.000	0.000
6666	6613	6612	6665	3	58.576	0.000	-58.576	-0.000	-0.000	0.000
6667	6614	6613	6666	3	58.576	0.000	-58.576	-0.000	-0.000	0.000
6662	6607	6606	6642	3	-0.778	-2.335	0.000	3.113	-0.000	0.000
6662	6607	6606	6605	3	-0.778	-2.335	0.000	3.113	-0.000	0.000
6667	6614	6615	6616	3	58.576	0.000	-58.576	-0.000	-0.000	0.000
6667	6614	6615	6626	3	58.576	0.000	-58.576	-0.000	-0.000	0.000
6681	6641	6609	6608	3	-0.778	-2.335	0.000	3.113	-0.000	0.000
6681	6641	6609	6610	3	-0.778	-2.335	0.000	3.113	-0.000	0.000
6682	6641	6609	6608	3	-0.778	-2.335	0.000	3.113	-0.000	0.000
6674	6637	6611	6612	3	-0.778	-2.335	0.000	3.113	-0.000	0.000
6682	6641	6609	6610	3	-0.778	-2.335	0.000	3.113	-0.000	0.000
6673	6637	6611	6610	3	-0.778	-2.335	0.000	3.113	-0.000	0.000
6674	6637	6611	6610	3	-0.778	-2.335	0.000	3.113	-0.000	0.000
6673	6637	6611	6612	3	-0.778	-2.335	0.000	3.113	-0.000	0.000
6676	6639	6638	6641	3	0.628	1.883	0.000	-2.510	-0.000	0.000
6675	6639	6638	6640	3	0.628	1.883	0.000	-2.510	-0.000	0.000
6675	6639	6638	6637	3	0.628	1.883	0.000	-2.510	-0.000	0.000
6677	6639	6638	6640	3	0.628	1.883	0.000	-2.510	-0.000	0.000
6679	6640	6638	6637	3	0.628	1.883	0.000	-2.510	-0.000	0.000
6678	6640	6638	6637	3	0.628	1.883	0.000	-2.510	-0.000	0.000
6677	6639	6638	6637	3	0.628	1.883	0.000	-2.510	-0.000	0.000
6679	6640	6638	6639	3	0.628	1.883	0.000	-2.510	-0.000	0.000
6676	6639	6638	6637	3	0.628	1.883	0.000	-2.510	-0.000	0.000
6681	6641	6638	6637	3	0.628	1.883	0.000	-2.510	-0.000	0.000
6681	6641	6638	6639	3	0.628	1.883	0.000	-2.510	-0.000	0.000
6674	6637	6638	6639	3	0.628	1.883	0.000	-2.510	-0.000	0.000
6677	6639	6638	6641	3	0.628	1.883	0.000	-2.510	-0.000	0.000
6674	6637	6638	6640	3	0.628	1.883	0.000	-2.510	-0.000	0.000
6682	6641	6638	6639	3	0.628	1.883	0.000	-2.510	-0.000	0.000
6678	6640	6638	6641	3	0.628	1.883	0.000	-2.510	-0.000	0.000
6679	6640	6638	6641	3	0.628	1.883	0.000	-2.510	-0.000	0.000
6680	6640	6638	6637	3	0.628	1.883	0.000	-2.510	-0.000	0.000
6673	6637	6638	6640	3	0.628	1.883	0.000	-2.510	-0.000	0.000
6673	6637	6638	6639	3	0.628	1.883	0.000	-2.510	-0.000	0.000
6678	6640	6638	6639	3	0.628	1.883	0.000	-2.510	-0.000	0.000
6674	6637	6638	6641	3	0.628	1.883	0.000	-2.510	-0.000	0.000
6682	6641	6638	6640	3	0.628	1.883	0.000	-2.510	-0.000	0.000
6676	6639	6638	6640	3	0.628	1.883	0.000	-2.510	-0.000	0.000
6675	6639	6638	6641	3	0.628	1.883	0.000	-2.510	-0.000	0.000
6682	6641	6638	6637	3	0.628	1.883	0.000	-2.510	-0.000	0.000
6673	6637	6638	6641	3	0.628	1.883	0.000	-2.510	-0.000	0.000
6680	6640	6638	6639	3	0.628	1.883	0.000	-2.510	-0.000	0.000
6681	6641	6638	6640	3	0.628	1.883	0.000	-2.510	-0.000	0.000
6680	6640	6638	6641	3	0.628	1.883	0.000	-2.510	-0.000	0.000
6649	6588	6587	6648	3	0.628	1.883	0.000	-2.510	-0.000	0.000
6650	6588	6587	6647	3	0.628	1.883	0.000	-2.510	-0.000	0.000
6649	6588	6587	6647	3	0.628	1.883	0.000	-2.510	-0.000	0.000
6650	6588	6587	6648	3	0.628	1.883	0.000	-2.510	-0.000	0.000
6650	6588	6587	6586	3	-4.096	5.088	2.966	-3.958	-0.000	0.000
6649	6588	6587	6586	3	-4.096	5.088	2.966	-3.958	-0.000	0.000
6648	6587	6588	6589	3	0.979	2.937	0.000	-3.916	-0.000	0.000
6647	6587	6588	6589	3	0.979	2.937	0.000	-3.916	-0.000	0.000
6648	6587	6586	6603	3	1.172	3.515	0.000	-4.686	-0.000	0.000
6644	6585	6586	6603	3	1.172	3.515	0.000	-4.686	-0.000	0.000
6647	6587	6586	6603	3	1.172	3.515	0.000	-4.686	-0.000	0.000
6645	6585	6586	6603	3	1.172	3.515	0.000	-4.686	-0.000	0.000
6646	6585	6586	6603	3	1.172	3.515	0.000	-4.686	-0.000	0.000
6647	6587	6586	6585	3	1.172	3.515	0.000	-4.686	-0.000	0.000
6645	6585	6586	6587	3	1.172	3.515	0.000	-4.686	-0.000	0.000
6648	6587	6586	6585	3	1.172	3.515	0.000	-4.686	-0.000	0.000
6646	6585	6586	6587	3	1.172	3.515	0.000	-4.686	-0.000	0.000
6644	6585	6586	6587	3	1.172	3.515	0.000	-4.686	-0.000	0.000
6649	6588	6589	6590	3	1.590	4.770	0.000	-6.360	-0.000	0.000
6650	6588	6589	6590	3	1.590	4.770	0.000	-6.360	-0.000	0.000
6655	6598	6597	6599	3	0.0	0.0	0.0	-0.0	-0.0	0.0
6655	6598	6597	6596	3	0.0	0.0	0.0	-0.0	-0.0	0.0
6598	6597	6596	6595	3	0.0	0.0	0.0	-0.0	-0.0	0.0
6625	6626	6615	6614	3	2.874	0.582	2.092	-5.548	-0.000	0.000
6625	6626	6615	6616	3	1.046	-1.046	0.000	-0.000	-0.000	0.000
6589	6588	6587	6586	3	16.736	-16.736	0.000	-0.000	-0.000	0.000
6625	6619	6616	6615	3	1.046	-1.046	0.000	-0.000	-0.000	0.000
6625	6619	6616	6617	3	9.079	0.000	-9.079	-0.000	-0.000	0.000
6694	6693	6692	6691	3	30.334	0.000	-30.334	-0.000	-0.000	0.000
6693	6701	6702	6690	3	30.334	0.000	-30.334	-0.000	-0.000	0.000
6693	6692	6691	6690	3	30.334	0.000	-30.334	-0.000	-0.000	0.000
6714	6713	6712	6711	3	21.738	2.408	-16.966	-7.180	-0.000	0.000
6710	6709	6708	6707	3	21.738	2.408	-16.966	-7.180	-0.000	0.000
6711	6710	6709	6708	3	21.738	2.408	-16.966	-7.180	-0.000	0.000
6712	6711	6710	6709	3	21.738	2.408	-16.966	-7.180	-0.000	0.000
6713	6712	6711	6710	3	21.738	2.408	-16.966	-7.180	-0.000	0.000
6709	6708	6707	6706	3	58.576	0.000	-58.576	-0.000	-0.000	0.000
6708	6707	6706	6705	3	16.027	-4.391	-14.029	2.393	-0.000	0.000
6707	6706	6705	6704	3	30.334	0.000	-30.334	-0.000	-0.000	0.000
6716	6715	6714	6713	3	58.576	0.000	-58.576	-0.000	-0.000	0.000
6701	6693	6694	6700	3	9.079	0.000	-9.079	-0.000	-0.000	0.000
6700	6694	6693	6692	3	9.079	0.000	-9.079	-0.000	-0.000	0.000
6701	6693	6694	6695	3	9.079	0.000	-9.079	-0.000	-0.000	0.000
6695	6694	6693	6692	3	9.079	0.000	-9.079	-0.000	-0.000	0.000
6700	6694	6695	6696	3	30.334	0.000	-30.334	-0.000	-0.000	0.000
6701	6693	6692	6691	3	30.334	0.000	-30.334	-0.000	-0.000	0.000
6699	6700	6694	6693	3	30.334	0.000	-30.334	-0.000	-0.000	0.000
6702	6701	6693	6694	3	30.334	0.000	-30.334	-0.000	-0.000	0.000
6696	6695	6694	6693	3	30.334	0.000	-30.334	-0.000	-0.000	0.000
6699	6700	6694	6695	3	30.334	0.000	-30.334	-0.000	-0.000	0.000
6702	6701	6693	6692	3	30.334	0.000	-30.334	-0.000	-0.000	0.000
6742	6706	6707	6708	3	16.027	-4.391	-14.029	2.393	-0.000	0.000
6697	6699	6700	6694	3	30.334	0.000	-30.334	-0.000	-0.000	0.000
6697	6696	6695	6694	3	30.334	0.000	-30.334	-0.000	-0.000	0.000
6743	6742	6706	6707	3	30.334	0.000	-30.334	-0.000	-0.000	0.000
6732	6727	6728	6729	3	30.334	0.000	-30.334	-0.000	-0.000	0.000
6743	6742	6706	6705	3	30.334	0.000	-30.334	-0.000	-0.000	0.000
6702	6690	6691	6692	3	30.334	0.000	-30.334	-0.000	-0.000	0.000
6742	6743	6703	6704	3	30.334	0.000	-30.334	-0.000	-0.000	0.000
6732	6731	6730	6729	3	30.334	0.000	-30.334	-0.000	-0.000	0.000
6731	6730	6729	6728	3	30.334	0.000	-30.334	-0.000	-0.000	0.000
6730	6729	6728	6727	3	30.334	0.000	-30.334	-0.000	-0.000	0.000
6706	6705	6704	6703	3	30.334	0.000	-30.334	-0.000	-0.000	0.000
6706	6742	6743	6703	3	30.334	0.000	-30.334	-0.000	-0.000	0.000
6743	6703	6704	6705	3	30.334	0.000	-30.334	-0.000	-0.000	0.000
6742	6706	6705	6704	3	30.334	0.000	-30.334	-0.000	-0.000	0.000
6731	6732	6727	6728	3	30.334	0.000	-30.334	-0.000	-0.000	0.000
6700	6699	6697	6696	3	30.334	0.000	-30.334	-0.000	-0.000	0.000
6701	6702	6690	6691	3	30.334	0.000	-30.334	-0.000	-0.000	0.000
6730	6731	6732	6727	3	30.334	0.000	-30.334	-0.000	-0.000	0.000
6699	6697	6696	6695	3	30.334	0.000	-30.334	-0.000	-0.000	0.000
6731	6732	6727	6726	3	30.334	0.000	-30.334	-0.000	-0.000	0.000
6729	6728	6727	6726	3	30.334	0.000	-30.334	-0.000	-0.000	0.000
6742	6743	6703	6686	3	30.334	0.000	-30.334	-0.000	-0.000	0.000
6705	6704	6703	6686	3	30.334	0.000	-30.334	-0.000	-0.000	0.000
6700	6699	6697	6698	3	0.0	0.0	0.0	-0.0	-0.0	0.0
6692	6691	6690	6689	3	30.334	0.000	-30.334	-0.000	-0.000	0.000
6701	6702	6690	6689	3	30.334	0.000	-30.334	-0.000	-0.000	0.000
6732	6727	6726	6715	3	0.000	0.000	0.000	-0.000	-0.000	0.000
6728	6727	6726	6715	3	0.000	0.000	0.000	-0.000	-0.000	0.000
6732	6727	6726	6725	3	0.000	0.000	0.000	-0.000	-0.000	0.000
6728	6727	6726	6725	3	0.000	0.000	0.000	-0.000	-0.000	0.000
6743	6703	6686	6687	3	5.184	35.932	-14.355	-26.761	-0.000	0.000
6704	6703	6686	6687	3	5.184	35.932	-14.355	-26.761	-0.000	0.000
6704	6703	6686	6685	3	5.184	35.932	-14.355	-26.761	-0.000	0.000
6743	6703	6686	6685	3	5.184	35.932	-14.355	-26.761	-0.000	0.000
6691	6690	6689	6688	3	12.552	0.000	-12.552	-0.000	-0.000	0.000
6702	6690	6689	6688	3	12.552	0.000	-12.552	-0.000	-0.000	0.000
6727	6726	6715	6714	3	6.322	-2.485	0.707	-4.544	-0.000	0.000
6727	6726	6715	6716	3	0.527	-6.397	-1.695	7.565	-0.000	0.000
6727	6726	6725	6719	3	1.715	2.845	1.046	-5.607	-0.000	0.000
6703	6686	6687	6688	3	1.789	3.492	0.536	-5.816	-0.000	0.000
6690	6689	6688	6687	3	1.715	2.845	1.046	-5.607	-0.000	0.000
6733	6726	6727	6728	3	0.000	0.000	0.000	-0.000	-0.000	0.000
6733	6726	6727	6732	3	0.000	0.000	0.000	-0.000	-0.000	0.000
6733	6726	6715	6714	3	6.322	-2.485	0.707	-4.544	-0.000	0.000
6733	6726	6715	6716	3	0.527	-6.397	-1.695	7.565	-0.000	0.000
6733	6726	6725	6719	3	1.715	2.845	1.046	-5.607	-0.000	0.000
6715	6714	6713	6712	3	21.738	2.408	-16.966	-7.180	-0.000	0.000
6720	6719	6716	6715	3	21.738	2.408	-16.966	-7.180	-0.000	0.000
6720	6719	6716	6717	3	-0.778	-2.335	0.000	3.113	-0.000	0.000
6741	6709	6708	6707	3	58.576	0.000	-58.576	-0.000	-0.000	0.000
6737	6711	6710	6709	3	58.576	0.000	-58.576	-0.000	-0.000	0.000
6741	6709	6710	6711	3	58.576	0.000	-58.576	-0.000	-0.000	0.000
6737	6711	6712	6713	3	58.576	0.000	-58.576	-0.000	-0.000	0.000
6726	6715	6714	6713	3	-0.778	-2.335	0.000	3.113	-0.000	0.000
6726	6715	6716	6719	3	58.576	0.000	-58.576	-0.000	-0.000	0.000
6726	6715	6716	6717	3	58.576	0.000	-58.576	-0.000	-0.000	0.000
6738	6741	6709	6708	3	0.527	-6.397	-1.695	7.565	-0.000	0.000
6738	6737	6711	6712	3	0.527	-6.397	-1.695	7.565	-0.000	0.000
6738	6737	6711	6710	3	0.527	-6.397	-1.695	7.565	-0.000	0.000
6738	6741	6709	6710	3	0.527	-6.397	-1.695	7.565	-0.000	0.000
6741	6738	6737	6711	3	2.301	-1.464	0.837	-1.674	-0.000	0.000
6740	6738	6741	6709	3	2.301	-1.464	0.837	-1.674	-0.000	0.000
6737	6738	6741	6709	3	2.301	-1.464	0.837	-1.674	-0.000	0.000
6739	6738	6741	6709	3	2.301	-1.464	0.837	-1.674	-0.000	0.000
6740	6738	6737	6711	3	2.301	-1.464	0.837	-1.674	-0.000	0.000
6739	6738	6737	6711	3	2.301	-1.464	0.837	-1.674	-0.000	0.000
6688	6687	6686	6685	3	1.789	3.492	0.536	-5.816	-0.000	0.000
6726	6725	6719	6716	3	30.334	0.000	-30.334	-0.000	-0.000	0.000
6726	6725	6719	6720	3	30.334	0.000	-30.334	-0.000	-0.000	0.000
6719	6716	6715	6714	3	58.576	0.000	-58.576	-0.000	-0.000	0.000
6719	6725	6726	6715	3	1.715	2.845	1.046	-5.607	-0.000	0.000
6717	6716	6715	6714	3	58.576	0.000	-58.576	-0.000	-0.000	0.000
6721	6720	6719	6716	3	58.576	0.000	-58.576	-0.000	-0.000	0.000
6723	6720	6719	6716	3	58.576	0.000	-58.576	-0.000	-0.000	0.000
6734	6733	6726	6727	3	0.000	0.000	0.000	-0.000	-0.000	0.000
6735	6733	6726	6727	3	0.000	0.000	0.000	-0.000	-0.000	0.000
6736	6733	6726	6727	3	0.000	0.000	0.000	-0.000	-0.000	0.000
6735	6733	6726	6715	3	0.000	0.000	0.000	-0.000	-0.000	0.000
6734	6733	6726	6715	3	0.000	0.000	0.000	-0.000	-0.000	0.000
6736	6733	6726	6715	3	0.000	0.000	0.000	-0.000	-0.000	0.000
6735	6733	6726	6725	3	1.130	3.389	0.000	-4.519	-0.000	0.000
6736	6733	6726	6725	3	1.130	3.389	0.000	-4.519	-0.000	0.000
6734	6733	6726	6725	3	1.130	3.389	0.000	-4.519	-0.000	0.000
6764	6710	6709	6708	3	58.576	0.000	-58.576	-0.000	-0.000	0.000
6764	6710	6711	6712	3	58.576	0.000	-58.576	-0.000	-0.000	0.000
6764	6710	6711	6737	3	58.576	0.000	-58.576	-0.000	-0.000	0.000
6764	6710	6709	6741	3	58.576	0.000	-58.576	-0.000	-0.000	0.000
6753	6695	6694	6693	3	30.334	0.000	-30.334	-0.000	-0.000	0.000
6752	6692	6693	6694	3	30.334	0.000	-30.334	-0.000	-0.000	0.000
6758	6701	6693	6694	3	30.334	0.000	-30.334	-0.000	-0.000	0.000
6757	6700	6694	6693	3	30.334	0.000	-30.334	-0.000	-0.000	0.000
6757	6700	6694	6695	3	30.334	0.000	-30.334	-0.000	-0.000	0.000
6753	6695	6694	6700	3	30.334	0.000	-30.334	-0.000	-0.000	0.000
6752	6692	6693	6701	3	30.334	0.000	-30.334	-0.000	-0.000	0.000
6758	6701	6693	6692	3	30.334	0.000	-30.334	-0.000	-0.000	0.000
6751	6691	6692	6693	3	30.334	0.000	-30.334	-0.000	-0.000	0.000
6759	6702	6701	6693	3	30.334	0.000	-30.334	-0.000	-0.000	0.000
6754	6696	6695	6694	3	30.334	0.000	-30.334	-0.000	-0.000	0.000
6756	6699	6700	6694	3	30.334	0.000	-30.334	-0.000	-0.000	0.000
6761	6705	6706	6707	3	30.334	0.000	-30.334	-0.000	-0.000	0.000
6783	6742	6706	6707	3	30.334	0.000	-30.334	-0.000	-0.000	0.000
6768	6728	6729	6730	3	30.334	0.000	-30.334	-0.000	-0.000	0.000
6756	6699	6697	6696	3	30.334	0.000	-30.334	-0.000	-0.000	0.000
6771	6731	6730	6729	3	30.334	0.000	-30.334	-0.000	-0.000	0.000
6783	6742	6743	6703	3	30.334	0.000	-30.334	-0.000	-0.000	0.000
6769	6729	6728	6727	3	30.334	0.000	-30.334	-0.000	-0.000	0.000
6784	6743	6742	6706	3	30.334	0.000	-30.334	-0.000	-0.000	0.000
6770	6730	6729	6728	3	30.334	0.000	-30.334	-0.000	-0.000	0.000
6759	6702	6690	6691	3	30.334	0.000	-30.334	-0.000	-0.000	0.000
6758	6701	6702	6690	3	30.334	0.000	-30.334	-0.000	-0.000	0.000
6783	6742	6706	6705	3	30.334	0.000	-30.334	-0.000	-0.000	0.000
6784	6743	6703	6704	3	30.334	0.000	-30.334	-0.000	-0.000	0.000
6771	6731	6732	6727	3	30.334	0.000	-30.334	-0.000	-0.000	0.000
6768	6728	6727	6732	3	30.334	0.000	-30.334	-0.000	-0.000	0.000
6753	6695	6696	6697	3	30.334	0.000	-30.334	-0.000	-0.000	0.000
6754	6696	6697	6699	3	30.334	0.000	-30.334	-0.000	-0.000	0.000
6751	6691	6690	6702	3	30.334	0.000	-30.334	-0.000	-0.000	0.000
6760	6704	6703	6743	3	30.334	0.000	-30.334	-0.000	-0.000	0.000
6760	6704	6705	6706	3	30.334	0.000	-30.334	-0.000	-0.000	0.000
6757	6700	6699	6697	3	30.334	0.000	-30.334	-0.000	-0.000	0.000
6761	6705	6706	6742	3	30.334	0.000	-30.334	-0.000	-0.000	0.000
6770	6730	6731	6732	3	30.334	0.000	-30.334	-0.000	-0.000	0.000
6772	6732	6731	6730	3	30.334	0.000	-30.334	-0.000	-0.000	0.000
6769	6729	6730	6731	3	30.334	0.000	-30.334	-0.000	-0.000	0.000
6772	6732	6727	6728	3	30.334	0.000	-30.334	-0.000	-0.000	0.000
6752	6692	6691	6690	3	30.334	0.000	-30.334	-0.000	-0.000	0.000
6761	6705	6704	6703	3	30.334	0.000	-30.334	-0.000	-0.000	0.000
6772	6732	6727	6726	3	30.334	0.000	-30.334	-0.000	-0.000	0.000
6768	6728	6727	6726	3	30.334	0.000	-30.334	-0.000	-0.000	0.000
6761	6705	6704	6760	3	30.334	0.000	-30.334	-0.000	-0.000	0.000
6784	6743	6742	6783	3	30.334	0.000	-30.334	-0.000	-0.000	0.000
6770	6730	6729	6769	3	30.334	0.000	-30.334	-0.000	-0.000	0.000
6754	6696	6695	6753	3	30.334	0.000	-30.334	-0.000	-0.000	0.000
6759	6702	6701	6758	3	30.334	0.000	-30.334	-0.000	-0.000	0.000
6757	6700	6699	6756	3	30.334	0.000	-30.334	-0.000	-0.000	0.000
6769	6729	6728	6768	3	30.334	0.000	-30.334	-0.000	-0.000	0.000
6752	6692	6691	6751	3	30.334	0.000	-30.334	-0.000	-0.000	0.000
6771	6731	6730	6770	3	30.334	0.000	-30.334	-0.000	-0.000	0.000
6772	6732	6731	6771	3	30.334	0.000	-30.334	-0.000	-0.000	0.000
6784	6743	6703	6686	3	30.334	0.000	-30.334	-0.000	-0.000	0.000
6760	6704	6703	6686	3	30.334	0.000	-30.334	-0.000	-0.000	0.000
6754	6696	6697	6698	3	0.0	0.0	0.0	-0.0	-0.0	0.0
6756	6699	6697	6698	3	0.0	0.0	0.0	-0.0	-0.0	0.0
6751	6691	6690	6689	3	30.334	0.000	-30.334	-0.000	-0.000	0.000
6759	6702	6690	6689	3	30.334	0.000	-30.334	-0.000	-0.000	0.000
6765	6712	6711	6710	3	58.576	0.000	-58.576	-0.000	-0.000	0.000
6765	6712	6713	6714	3	58.576	0.000	-58.576	-0.000	-0.000	0.000
6767	6714	6713	6712	3	58.576	0.000	-58.576	-0.000	-0.000	0.000
6766	6713	6712	6711	3	58.576	0.000	-58.576	-0.000	-0.000	0.000
6763	6708	6709	6710	3	58.576	0.000	-58.576	-0.000	-0.000	0.000
6762	6707	6708	6709	3	58.576	0.000	-58.576	-0.000	-0.000	0.000
6763	6708	6707	6706	3	58.576	0.000	-58.576	-0.000	-0.000	0.000
6766	6713	6714	6715	3	58.576	0.000	-58.576	-0.000	-0.000	0.000
6765	6712	6711	6737	3	58.576	0.000	-58.576	-0.000	-0.000	0.000
6763	6708	6709	6741	3	58.576	0.000	-58.576	-0.000	-0.000	0.000
6763	6708	6707	6762	3	58.576	0.000	-58.576	-0.000	-0.000	0.000
6766	6713	6712	6765	3	58.576	0.000	-58.576	-0.000	-0.000	0.000
6767	6714	6713	6766	3	58.576	0.000	-58.576	-0.000	-0.000	0.000
6762	6707	6706	6742	3	-0.778	-2.335	0.000	3.113	-0.000	0.000
6762	6707	6706	6705	3	-0.778	-2.335	0.000	3.113	-0.000	0.000
6767	6714	6715	6716	3	58.576	0.000	-58.576	-0.000	-0.000	0.000
6767	6714	6715	6726	3	58.576	0.000	-58.576	-0.000	-0.000	0.000
6781	6741	6709	6708	3	-0.778	-2.335	0.000	3.113	-0.000	0.000
6781	6741	6709	6710	3	-0.778	-2.335	0.000	3.113	-0.000	0.000
6782	6741	6709	6708	3	-0.778	-2.335	0.000	3.113	-0.000	0.000
6774	6737	6711	6712	3	-0.778	-2.335	0.000	3.113	-0.000	0.000
6782	6741	6709	6710	3	-0.778	-2.335	0.000	3.113	-0.000	0.000
6773	6737	6711	6710	3	-0.778	-2.335	0.000	3.113	-0.000	0.000
6774	6737	6711	6710	3	-0.778	-2.335	0.000	3.113	-0.000	0.000
6773	6737	6711	6712	3	-0.778	-2.335	0.000	3.113	-0.000	0.000
6776	6739	6738	6741	3	0.628	1.883	0.000	-2.510	-0.000	0.000
6775	6739	6738	6740	3	0.628	1.883	0.000	-2.510	-0.000	0.000
6775	6739	6738	6737	3	0.628	1.883	0.000	-2.510	-0.000	0.000
6777	6739	6738	6740	3	0.628	1.883	0.000	-2.510	-0.000	0.000
6779	6740	6738	6737	3	0.628	1.883	0.000	-2.510	-0.000	0.000
6778	6740	6738	6737	3	0.628	1.883	0.000	-2.510	-0.000	0.000
6777	6739	6738	6737	3	0.628	1.883	0.000	-2.510	-0.000	0.000
6779	6740	6738	6739	3	0.628	1.883	0.000	-2.510	-0.000	0.000
6776	6739	6738	6737	3	0.628	1.883	0.000	-2.510	-0.000	0.000
6781	6741	6738	6737	3	0.628	1.883	0.000	-2.510	-0.000	0.000
6781	6741	6738	6739	3	0.628	1.883	0.000	-2.510	-0.000	0.000
6774	6737	6738	6739	3	0.628	1.883	0.000	-2.510	-0.000	0.000
6777	6739	6738	6741	3	0.628	1.883	0.000	-2.510	-0.000	0.000
6774	6737	6738	6740	3	0.628	1.883	0.000	-2.510	-0.000	0.000
6782	6741	6738	6739	3	0.628	1.883	0.000	-2.510	-0.000	0.000
6778	6740	6738	6741	3	0.628	1.883	0.000	-2.510	-0.000	0.000
6779	6740	6738	6741	3	0.628	1.883	0.000	-2.510	-0.000	0.000
6780	6740	6738	6737	3	0.628	1.883	0.000	-2.510	-0.000	0.000
6773	6737	6738	6740	3	0.628	1.883	0.000	-2.510	-0.000	0.000
6773	6737	6738	6739	3	0.628	1.883	0.000	-2.510	-0.000	0.000
6778	6740	6738	6739	3	0.628	1.883	0.000	-2.510	-0.000	0.000
6774	6737	6738	6741	3	0.628	1.883	0.000	-2.510	-0.000	0.000
6782	6741	6738	6740	3	0.628	1.883	0.000	-2.510	-0.000	0.000
6776	6739	6738	6740	3	0.628	1.883	0.000	-2.510	-0.000	0.000
6775	6739	6738	6741	3	0.628	1.883	0.000	-2.510	-0.000	0.000
6782	6741	6738	6737	3	0.628	1.883	0.000	-2.510	-0.000	0.000
6773	6737	6738	6741	3	0.628	1.883	0.000	-2.510	-0.000	0.000
6780	6740	6738	6739	3	0.628	1.883	0.000	-2.510	-0.000	0.000
6781	6741	6738	6740	3	0.628	1.883	0.000	-2.510	-0.000	0.000
6780	6740	6738	6741	3	0.628	1.883	0.000	-2.510	-0.000	0.000
6749	6688	6687	6748	3	0.628	1.883	0.000	-2.510	-0.000	0.000
6750	6688	6687	6747	3	0.628	1.883	0.000	-2.510	-0.000	0.000
6749	6688	6687	6747	3	0.628	1.883	0.000	-2.510	-0.000	0.000
6750	6688	6687	6748	3	0.628	1.883	0.000	-2.510	-0.000	0.000
6750	6688	6687	6686	3	-4.096	5.088	2.966	-3.958	-0.000	0.000
6749	6688	6687	6686	3	-4.096	5.088	2.966	-3.958	-0.000	0.000
6748	6687	6688	6689	3	0.979	2.937	0.000	-3.916	-0.000	0.000
6747	6687	6688	6689	3	0.979	2.937	0.000	-3.916	-0.000	0.000
6748	6687	6686	6703	3	1.172	3.515	0.000	-4.686	-0.000	0.000
6744	6685	6686	6703	3	1.172	3.515	0.000	-4.686	-0.000	0.000
6747	6687	6686	6703	3	1.172	3.515	0.000	-4.686	-0.000	0.000
6745	6685	6686	6703	3	1.172	3.515	0.000	-4.686	-0.000	0.000
6746	6685	6686	6703	3	1.172	3.515	0.000	-4.686	-0.000	0.000
6747	6687	6686	6685	3	1.172	3.515	0.000	-4.686	-0.000	0.000
6745	6685	6686	6687	3	1.172	3.515	0.000	-4.686	-0.000	0.000
6748	6687	6686	6685	3	1.172	3.515	0.000	-4.686	-0.000	0.000
6746	6685	6686	6687	3	1.172	3.515	0.000	-4.686	-0.000	0.000
6744	6685	6686	6687	3	1.172	3.515	0.000	-4.686	-0.000	0.000
6749	6688	6689	6690	3	1.590	4.770	0.000	-6.360	-0.000	0.000
6750	6688	6689	6690	3	1.590	4.770	0.000	-6.360	-0.000	0.000
6755	6698	6697	6699	3	0.0	0.0	0.0	-0.0	-0.0	0.0
6755	6698	6697	6696	3	0.0	0.0	0.0	-0.0	-0.0	0.0
6698	6697	6696	6695	3	0.0	0.0	0.0	-0.0	-0.0	0.0
6725	6726	6715	6714	3	2.874	0.582	2.092	-5.548	-0.000	0.000
6725	6726	6715	6716	3	1.046	-1.046	0.000	-0.000	-0.000	0.000
6689	6688	6687	6686	3	16.736	-16.736	0.000	-0.000	-0.000	0.000
6725	6719	6716	6715	3	1.046	-1.046	0.000	-0.000	-0.000	0.000
6725	6719	6716	6717	3	9.079	0.000	-9.079	-0.000	-0.000	0.000
6794	6793	6792	6791	3	30.334	0.000	-30.334	-0.000	-0.000	0.000
6793	6801	6802	6790	3	30.334	0.000	-30.334	-0.000	-0.000	0.000
6793	6792	6791	6790	3	30.334	0.000	-30.334	-0.000	-0.000	0.000
6814	6813	6812	6811	3	21.738	2.408	-16.966	-7.180	-0.000	0.000
6810	6809	6808	6807	3	21.738	2.408	-16.966	-7.180	-0.000	0.000
6811	6810	6809	6808	3	21.738	2.408	-16.966	-7.180	-0.000	0.000
6812	6811	6810	6809	3	21.738	2.408	-16.966	-7.180	-0.000	0.000
6813	6812	6811	6810	3	21.738	2.408	-16.966	-7.180	-0.000	0.000
6809	6808	6807	6806	3	58.576	0.000	-58.576	-0.000	-0.000	0.000
6808	6807	6806	6805	3	16.027	-4.391	-14.029	2.393	-0.000	0.000
6807	6806	6805	6804	3	30.334	0.000	-30.334	-0.000	-0.000	0.000
6816	6815	6814	6813	3	58.576	0.000	-58.576	-0.000	-0.000	0.000
6801	6793	6794	6800	3	9.079	0.000	-9.079	-0.000	-0.000	0.000
6800	6794	6793	6792	3	9.079	0.000	-9.079	-0.000	-0.000	0.000
6801	6793	6794	6795	3	9.079	0.000	-9.079	-0.000	-0.000	0.000
6795	6794	6793	6792	3	9.079	0.000	-9.079	-0.000	-0.000	0.000
6800	6794	6795	6796	3	30.334	0.000	-30.334	-0.000	-0.000	0.000
6801	6793	6792	6791	3	30.334	0.000	-30.334	-0.000	-0.000	0.000
6799	6800	6794	6793	3	30.334	0.000	-30.334	-0.000	-0.000	0.000
6802	6801	6793	6794	3	30.334	0.000	-30.334	-0.000	-0.000	0.000
6796	6795	6794	6793	3	30.334	0.000	-30.334	-0.000	-0.000	0.000
6799	6800	6794	6795	3	30.334	0.000	-30.334	-0.000	-0.000	0.000
6802	6801	6793	6792	3	30.334	0.000	-30.334	-0.000	-0.000	0.000
6842	6806	6807	6808	3	16.027	-4.391	-14.029	2.393	-0.000	0.000
6797	6799	6800	6794	3	30.334	0.000	-30.334	-0.000	-0.000	0.000
6797	6796	6795	6794	3	30.334	0.000	-30.334	-0.000	-0.000	0.000
6843	6842	6806	6807	3	30.334	0.000	-30.334	-0.000	-0.000	0.000
6832	6827	6828	6829	3	30.334	0.000	-30.334	-0.000	-0.000	0.000
6843	6842	6806	6805	3	30.334	0.000	-30.334	-0.000	-0.000	0.000
6802	6790	6791	6792	3	30.334	0.000	-30.334	-0.000	-0.000	0.000
6842	6843	6803	6804	3	30.334	0.000	-30.334	-0.000	-0.000	0.000
6832	6831	6830	6829	3	30.334	0.000	-30.334	-0.000	-0.000	0.000
6831	6830	6829	6828	3	30.334	0.000	-30.334	-0.000	-0.000	0.000
6830	6829	6828	6827	3	30.334	0.000	-30.334	-0.000	-0.000	0.000
6806	6805	6804	6803	3	30.334	0.000	-30.334	-0.000	-0.000	0.000
6806	6842	6843	6803	3	30.334	0.000	-30.334	-0.000	-0.000	0.000
6843	6803	6804	6805	3	30.334	0.000	-30.334	-0.000	-0.000	0.000
6842	6806	6805	6804	3	30.334	0.000	-30.334	-0.000	-0.000	0.000
6831	6832	6827	6828	3	30.334	0.000	-30.334	-0.000	-0.000	0.000
6800	6799	6797	6796	3	30.334	0.000	-30.334	-0.000	-0.000	0.000
6801	6802	6790	6791	3	30.334	0.000	-30.334	-0.000	-0.000	0.000
6830	6831	6832	6827	3	30.334	0.000	-30.334	-0.000	-0.000	0.000
6799	6797	6796	6795	3	30.334	0.000	-30.334	-0.000	-0.000	0.000
6831	6832	6827	6826	3	30.334	0.000	-30.334	-0.000	-0.000	0.000
6829	6828	6827	6826	3	30.334	0.000	-30.334	-0.000	-0.000	0.000
6842	6843	6803	6786	3	30.334	0.000	-30.334	-0.000	-0.000	0.000
6805	6804	6803	6786	3	30.334	0.000	-30.334	-0.000	-0.000	0.000
6800	6799	6797	6798	3	0.0	0.0	0.0	-0.0	-0.0	0.0
6792	6791	6790	6789	3	30.334	0.000	-30.334	-0.000	-0.000	0.000
6801	6802	6790	6789	3	30.334	0.000	-30.334	-0.000	-0.000	0.000
6832	6827	6826	6815	3	0.000	0.000	0.000	-0.000	-0.000	0.000
6828	6827	6826	6815	3	0.000	0.000	0.000	-0.000	-0.000	0.000
6832	6827	6826	6825	3	0.000	0.000	0.000	-0.000	-0.000	0.000
6828	6827	6826	6825	3	0.000	0.000	0.000	-0.000	-0.000	0.000
6843	6803	6786	6787	3	5.184	35.932	-14.355	-26.761	-0.000	0.000
6804	6803	6786	6787	3	5.184	35.932	-14.355	-26.761	-0.000	0.000
6804	6803	6786	6785	3	5.184	35.932	-14.355	-26.761	-0.000	0.000
6843	6803	6786	6785	3	5.184	35.932	-14.355	-26.761	-0.000	0.000
6791	6790	6789	6788	3	12.552	0.000	-12.552	-0.000	-0.000	0.000
6802	6790	6789	6788	3	12.552	0.000	-12.552	-0.000	-0.000	0.000
6827	6826	6815	6814	3	6.322	-2.485	0.707	-4.544	-0.000	0.000
6827	6826	6815	6816	3	0.527	-6.397	-1.695	7.565	-0.000	0.000
6827	6826	6825	6819	3	1.715	2.845	1.046	-5.607	-0.000	0.000
6803	6786	6787	6788	3	1.789	3.492	0.536	-5.816	-0.000	0.000
6790	6789	6788	6787	3	1.715	2.845	1.046	-5.607	-0.000	0.000
6833	6826	6827	6828	3	0.000	0.000	0.000	-0.000	-0.000	0.000
6833	6826	6827	6832	3	0.000	0.000	0.000	-0.000	-0.000	0.000
6833	6826	6815	6814	3	6.322	-2.485	0.707	-4.544	-0.000	0.000
6833	6826	6815	6816	3	0.527	-6.397	-1.695	7.565	-0.000	0.000
6833	6826	6825	6819	3	1.715	2.845	1.046	-5.607	-0.000	0.000
6815	6814	6813	6812	3	21.738	2.408	-16.966	-7.180	-0.000	0.000
6820	6819	6816	6815	3	21.738	2.408	-16.966	-7.180	-0.000	0.000
6820	6819	6816	6817	3	-0.778	-2.335	0.000	3.113	-0.000	0.000
6841	6809	6808	6807	3	58.576	0.000	-58.576	-0.000	-0.000	0.000
6837	6811	6810	6809	3	58.576	0.000	-58.576	-0.000	-0.000	0.000
6841	6809	6810	6811	3	58.576	0.000	-58.576	-0.000	-0.000	0.000
6837	6811	6812	6813	3	58.576	0.000	-58.576	-0.000	-0.000	0.000
6826	6815	6814	6813	3	-0.778	-2.335	0.000	3.113	-0.000	0.000
6826	6815	6816	6819	3	58.576	0.000	-58.576	-0.000	-0.000	0.000
6826	6815	6816	6817	3	58.576	0.000	-58.576	-0.000	-0.000	0.000
6838	6841	6809	6808	3	0.527	-6.397	-1.695	7.565	-0.000	0.000
6838	6837	6811	6812	3	0.527	-6.397	-1.695	7.565	-0.000	0.000
6838	6837	6811	6810	3	0.527	-6.397	-1.695	7.565	-0.000	0.000
6838	6841	6809	6810	3	0.527	-6.397	-1.695	7.565	-0.000	0.000
6841	6838	6837	6811	3	2.301	-1.464	0.837	-1.674	-0.000	0.000
6840	6838	6841	6809	3	2.301	-1.464	0.837	-1.674	-0.000	0.000
6837	6838	6841	6809	3	2.301	-1.464	0.837	-1.674	-0.000	0.000
6839	6838	6841	6809	3	2.301	-1.464	0.837	-1.674	-0.000	0.000
6840	6838	6837	6811	3	2.301	-1.464	0.837	-1.674	-0.000	0.000
6839	6838	6837	6811	3	2.301	-1.464	0.837	-1.674	-0.000	0.000
6788	6787	6786	6785	3	1.789	3.492	0.536	-5.816	-0.000	0.000
6826	6825	6819	6816	3	30.334	0.000	-30.334	-0.000	-0.000	0.000
6826	6825	6819	6820	3	30.334	0.000	-30.334	-0.000	-0.000	0.000
6819	6816	6815	6814	3	58.576	0.000	-58.576	-0.000	-0.000	0.000
6819	6825	6826	6815	3	1.715	2.845	1.046	-5.607	-0.000	0.000
6817	6816	6815	6814	3	58.576	0.000	-58.576	-0.000	-0.000	0.000
6821	6820	6819	6816	3	58.576	0.000	-58.576	-0.000	-0.000	0.000
6823	6820	6819	6816	3	58.576	0.000	-58.576	-0.000	-0.000	0.000
6834	6833	6826	6827	3	0.000	0.000	0.000	-0.000	-0.000	0.000
6835	6833	6826	6827	3	0.000	0.000	0.000	-0.000	-0.000	0.000
6836	6833	6826	6827	3	0.000	0.000	0.000	-0.000	-0.000	0.000
6835	6833	6826	6815	3	0.000	0.000	0.000	-0.000	-0.000	0.000
6834	6833	6826	6815	3	0.000	0.000	0.000	-0.000	-0.000	0.000
6836	6833	6826	6815	3	0.000	0.000	0.000	-0.000	-0.000	0.000
6835	6833	6826	6825	3	1.130	3.389	0.000	-4.519	-0.000	0.000
6836	6833	6826	6825	3	1.130	3.389	0.000	-4.519	-0.000	0.000
6834	6833	6826	6825	3	1.130	3.389	0.000	-4.519	-0.000	0.000
6864	6810	6809	6808	3	58.576	0.000	-58.576	-0.000	-0.000	0.000
6864	6810	6811	6812	3	58.576	0.000	-58.576	-0.000	-0.000	0.000
6864	6810	6811	6837	3	58.576	0.000	-58.576	-0.000	-0.000	0.000
6864	6810	6809	6841	3	58.576	0.000	-58.576	-0.000	-0.000	0.000
6853	6795	6794	6793	3	30.334	0.000	-30.334	-0.000	-0.000	0.000
6852	6792	6793	6794	3	30.334	0.000	-30.334	-0.000	-0.000	0.000
6858	6801	6793	6794	3	30.334	0.000	-30.334	-0.000	-0.000	0.000
6857	6800	6794	6793	3	30.334	0.000	-30.334	-0.000	-0.000	0.000
6857	6800	6794	6795	3	30.334	0.000	-30.334	-0.000	-0.000	0.000
6853	6795	6794	6800	3	30.334	0.000	-30.334	-0.000	-0.000	0.000
6852	6792	6793	6801	3	30.334	0.000	-30.334	-0.000	-0.000	0.000
6858	6801	6793	6792	3	30.334	0.000	-30.334	-0.000	-0.000	0.000
6851	6791	6792	6793	3	30.334	0.000	-30.334	-0.000	-0.000	0.000
6859	6802	6801	6793	3	30.334	0.000	-30.334	-0.000	-0.000	0.000
6854	6796	6795	6794	3	30.334	0.000	-30.334	-0.000	-0.000	0.000
6856	6799	6800	6794	3	30.334	0.000	-30.334	-0.000	-0.000	0.000
6861	6805	6806	6807	3	30.334	0.000	-30.334	-0.000	-0.000	0.000
6883	6842	6806	6807	3	30.334	0.000	-30.334	-0.000	-0.000	0.000
6868	6828	6829	6830	3	30.334	0.000	-30.334	-0.000	-0.000	0.000
6856	6799	6797	6796	3	30.334	0.000	-30.334	-0.000	-0.000	0.000
6871	6831	6830	6829	3	30.334	0.000	-30.334	-0.000	-0.000	0.000
6883	6842	6843	6803	3	30.334	0.000	-30.334	-0.000	-0.000	0.000
6869	6829	6828	6827	3	30.334	0.000	-30.334	-0.000	-0.000	0.000
6884	6843	6842	6806	3	30.334	0.000	-30.334	-0.000	-0.000	0.000
6870	6830	6829	6828	3	30.334	0.000	-30.334	-0.000	-0.000	0.000
6859	6802	6790	6791	3	30.334	0.000	-30.334	-0.000	-0.000	0.000
6858	6801	6802	6790	3	30.334	0.000	-30.334	-0.000	-0.000	0.000
6883	6842	6806	6805	3	30.334	0.000	-30.334	-0.000	-0.000	0.000
6884	6843	6803	6804	3	30.334	0.000	-30.334	-0.000	-0.000	0.000
6871	6831	6832	6827	3	30.334	0.000	-30.334	-0.000	-0.000	0.000
6868	6828	6827	6832	3	30.334	0.000	-30.334	-0.000	-0.000	0.000
6853	6795	6796	6797	3	30.334	0.000	-30.334	-0.000	-0.000	0.000
6854	6796	6797	6799	3	30.334	0.000	-30.334	-0.000	-0.000	0.000
6851	6791	6790	6802	3	30.334	0.000	-30.334	-0.000	-0.000	0.000
6860	6804	6803	6843	3	30.334	0.000	-30.334	-0.000	-0.000	0.000
6860	6804	6805	6806	3	30.334	0.000	-30.334	-0.000	-0.000	0.000
6857	6800	6799	6797	3	30.334	0.000	-30.334	-0.000	-0.000	0.000
6861	6805	6806	6842	3	30.334	0.000	-30.334	-0.000	-0.000	0.000
6870	6830	6831	6832	3	30.334	0.000	-30.334	-0.000	-0.000	0.000
6872	6832	6831	6830	3	30.334	0.000	-30.334	-0.000	-0.000	0.000
6869	6829	6830	6831	3	30.334	0.000	-30.334	-0.000	-0.000	0.000
6872	6832	6827	6828	3	30.334	0.000	-30.334	-0.000	-0.000	0.000
6852	6792	6791	6790	3	30.334	0.000	-30.334	-0.000	-0.000	0.000
6861	6805	6804	6803	3	30.334	0.000	-30.334	-0.000	-0.000	0.000
6872	6832	6827	6826	3	30.334	0.000	-30.334	-0.000	-0.000	0.000
6868	6828	6827	6826	3	30.334	0.000	-30.334	-0.000	-0.000	0.000
6861	6805	6804	6860	3	30.334	0.000	-30.334	-0.000	-0.000	0.000
6884	6843	6842	6883	3	30.334	0.000	-30.334	-0.000	-0.000	0.000
6870	6830	6829	6869	3	30.334	0.000	-30.334	-0.000	-0.000	0.000
6854	6796	6795	6853	3	30.334	0.000	-30.334	-0.000	-0.000	0.000
6859	6802	6801	6858	3	30.334	0.000	-30.334	-0.000	-0.000	0.000
6857	6800	6799	6856	3	30.334	0.000	-30.334	-0.000	-0.000	0.000
6869	6829	6828	6868	3	30.334	0.000	-30.334	-0.000	-0.000	0.000
6852	6792	6791	6851	3	30.334	0.000	-30.334	-0.000	-0.000	0.000
6871	6831	6830	6870	3	30.334	0.000	-30.334	-0.000	-0.000	0.000
6872	6832	6831	6871	3	30.334	0.000	-30.334	-0.000	-0.000	0.000
6884	6843	6803	6786	3	30.334	0.000	-30.334	-0.000	-0.000	0.000
6860	6804	6803	6786	3	30.334	0.000	-30.334	-0.000	-0.000	0.000
6854	6796	6797	6798	3	0.0	0.0	0.0	-0.0	-0.0	0.0
6856	6799	6797	6798	3	0.0	0.0	0.0	-0.0	-0.0	0.0
6851	6791	6790	6789	3	30.334	0.000	-30.334	-0.000	-0.000	0.000
6859	6802	6790	6789	3	30.334	0.000	-30.334	-0.000	-0.000	0.000
6865	6812	6811	6810	3	58.576	0.000	-58.576	-0.000	-0.000	0.000
6865	6812	6813	6814	3	58.576	0.000	-58.576	-0.000	-0.000	0.000
6867	6814	6813	6812	3	58.576	0.000	-58.576	-0.000	-0.000	0.000
6866	6813	6812	6811	3	58.576	0.000	-58.576	-0.000	-0.000	0.000
6863	6808	6809	6810	3	58.576	0.000	-58.576	-0.000	-0.000	0.000
6862	6807	6808	6809	3	58.576	0.000	-58.576	-0.000	-0.000	0.000
6863	6808	6807	6806	3	58.576	0.000	-58.576	-0.000	-0.000	0.000
6866	6813	6814	6815	3	58.576	0.000	-58.576	-0.000	-0.000	0.000
6865	6812	6811	6837	3	58.576	0.000	-58.576	-0.000	-0.000	0.000
6863	6808	6809	6841	3	58.576	0.000	-58.576	-0.000	-0.000	0.000
6863	6808	6807	6862	3	58.576	0.000	-58.576	-0.000	-0.000	0.000
6866	6813	6812	6865	3	58.576	0.000	-58.576	-0.000	-0.000	0.000
6867	6814	6813	6866	3	58.576	0.000	-58.576	-0.000	-0.000	0.000
6862	6807	6806	6842	3	-0.778	-2.335	0.000	3.113	-0.000	0.000
6862	6807	6806	6805	3	-0.778	-2.335	0.000	3.113	-0.000	0.000
6867	6814	6815	6816	3	58.576	0.000	-58.576	-0.000	-0.000	0.000
6867	6814	6815	6826	3	58.576	0.000	-58.576	-0.000	-0.000	0.000
6881	6841	6809	6808	3	-0.778	-2.335	0.000	3.113	-0.000	0.000
6881	6841	6809	6810	3	-0.778	-2.335	0.000	3.113	-0.000	0.000
6882	6841	6809	6808	3	-0.778	-2.335	0.000	3.113	-0.000	0.000
6874	6837	6811	6812	3	-0.778	-2.335	0.000	3.113	-0.000	0.000
6882	6841	6809	6810	3	-0.778	-2.335	0.000	3.113	-0.000	0.000
6873	6837	6811	6810	3	-0.778	-2.335	0.000	3.113	-0.000	0.000
6874	6837	6811	6810	3	-0.778	-2.335	0.000	3.113	-0.000	0.000
6873	6837	6811	6812	3	-0.778	-2.335	0.000	3.113	-0.000	0.000
6876	6839	6838	6841	3	0.628	1.883	0.000	-2.510	-0.000	0.000
6875	6839	6838	6840	3	0.628	1.883	0.000	-2.510	-0.000	0.000
6875	6839	6838	6837	3	0.628	1.883	0.000	-2.510	-0.000	0.000
6877	6839	6838	6840	3	0.628	1.883	0.000	-2.510	-0.000	0.000
6879	6840	6838	6837	3	0.628	1.883	0.000	-2.510	-0.000	0.000
6878	6840	6838	6837	3	0.628	1.883	0.000	-2.510	-0.000	0.000
6877	6839	6838	6837	3	0.628	1.883	0.000	-2.510	-0.000	0.000
6879	6840	6838	6839	3	0.628	1.883	0.000	-2.510	-0.000	0.000
6876	6839	6838	6837	3	0.628	1.883	0.000	-2.510	-0.000	0.000
6881	6841	6838	6837	3	0.628	1.883	0.000	-2.510	-0.000	0.000
6881	6841	6838	6839	3	0.628	1.883	0.000	-2.510	-0.000	0.000
6874	6837	6838	6839	3	0.628	1.883	0.000	-2.510	-0.000	0.000
6877	6839	6838	6841	3	0.628	1.883	0.000	-2.510	-0.000	0.000
6874	6837	6838	6840	3	0.628	1.883	0.000	-2.510	-0.000	0.000
6882	6841	6838	6839	3	0.628	1.883	0.000	-2.510	-0.000	0.000
6878	6840	6838	6841	3	0.628	1.883	0.000	-2.510	-0.000	0.000
6879	6840	6838	6841	3	0.628	1.883	0.000	-2.510	-0.000	0.000
6880	6840	6838	6837	3	0.628	1.883	0.000	-2.510	-0.000	0.000
6873	6837	6838	6840	3	0.628	1.883	0.000	-2.510	-0.000	0.000
6873	6837	6838	6839	3	0.628	1.883	0.000	-2.510	-0.000	0.000
6878	6840	6838	6839	3	0.628	1.883	0.000	-2.510	-0.000	0.000
6874	6837	6838	6841	3	0.628	1.883	0.000	-2.510	-0.000	0.000
6882	6841	6838	6840	3	0.628	1.883	0.000	-2.510	-0.000	0.000
6876	6839	6838	6840	3	0.628	1.883	0.000	-2.510	-0.000	0.000
6875	6839	6838	6841	3	0.628	1.883	0.000	-2.510	-0.000	0.000
6882	6841	6838	6837	3	0.628	1.883	0.000	-2.510	-0.000	0.000
6873	6837	6838	6841	3	0.628	1.883	0.000	-2.510	-0.000	0.000
6880	6840	6838	6839	3	0.628	1.883	0.000	-2.510	-0.000	0.000
6881	6841	6838	6840	3	0.628	1.883	0.000	-2.510	-0.000	0.000
6880	6840	6838	6841	3	0.628	1.883	0.000	-2.510	-0.000	0.000
6849	6788	6787	6848	3	0.628	1.883	0.000	-2.510	-0.000	0.000
6850	6788	6787	6847	3	0.628	1.883	0.000	-2.510	-0.000	0.000
6849	6788	6787	6847	3	0.628	1.883	0.000	-2.510	-0.000	0.000
6850	6788	6787	6848	3	0.628	1.883	0.000	-2.510	-0.000	0.000
6850	6788	6787	6786	3	-4.096	5.088	2.966	-3.958	-0.000	0.000
6849	6788	6787	6786	3	-4.096	5.088	2.966	-3.958	-0.000	0.000
6848	6787	6788	6789	3	0.979	2.937	0.000	-3.916	-0.000	0.000
6847	6787	6788	6789	3	0.979	2.937	0.000	-3.916	-0.000	0.000
6848	6787	6786	6803	3	1.172	3.515	0.000	-4.686	-0.000	0.000
6844	6785	6786	6803	3	1.172	3.515	0.000	-4.686	-0.000	0.000
6847	6787	6786	6803	3	1.172	3.515	0.000	-4.686	-0.000	0.000
6845	6785	6786	6803	3	1.172	3.515	0.000	-4.686	-0.000	0.000
6846	6785	6786	6803	3	1.172	3.515	0.000	-4.686	-0.000	0.000
6847	6787	6786	6785	3	1.172	3.515	0.000	-4.686	-0.000	0.000
6845	6785	6786	6787	3	1.172	3.515	0.000	-4.686	-0.000	0.000
6848	6787	6786	6785	3	1.172	3.515	0.000	-4.686	-0.000	0.000
6846	6785	6786	6787	3	1.172	3.515	0.000	-4.686	-0.000	0.000
6844	6785	6786	6787	3	1.172	3.515	0.000	-4.686	-0.000	0.000
6849	6788	6789	6790	3	1.590	4.770	0.000	-6.360	-0.000	0.000
6850	6788	6789	6790	3	1.590	4.770	0.000	-6.360	-0.000	0.000
6855	6798	6797	6799	3	0.0	0.0	0.0	-0.0	-0.0	0.0
6855	6798	6797	6796	3	0.0	0.0	0.0	-0.0	-0.0	0.0
6798	6797	6796	6795	3	0.0	0.0	0.0	-0.0	-0.0	0.0
6825	6826	6815	6814	3	2.874	0.582	2.092	-5.548	-0.000	0.000
6825	6826	6815	6816	3	1.046	-1.046	0.000	-0.000	-0.000	0.000
6789	6788	6787	6786	3	16.736	-16.736	0.000	-0.000	-0.000	0.000
6825	6819	6816	6815	3	1.046	-1.046	0.000	-0.000	-0.000	0.000
6825	6819	6816	6817	3	9.079	0.000	-9.079	-0.000	-0.000	0.000
6894	6893	6892	6891	3	30.334	0.000	-30.334	-0.000	-0.000	0.000
6893	6901	6902	6890	3	30.334	0.000	-30.334	-0.000	-0.000	0.000
6893	6892	6891	6890	3	30.334	0.000	-30.334	-0.000	-0.000	0.000
6914	6913	6912	6911	3	21.738	2.408	-16.966	-7.180	-0.000	0.000
6910	6909	6908	6907	3	21.738	2.408	-16.966	-7.180	-0.000	0.000
6911	6910	6909	6908	3	21.738	2.408	-16.966	-7.180	-0.000	0.000
6912	6911	6910	6909	3	21.738	2.408	-16.966	-7.180	-0.000	0.000
6913	6912	6911	6910	3	21.738	2.408	-16.966	-7.180	-0.000	0.000
6909	6908	6907	6906	3	58.576	0.000	-58.576	-0.000	-0.000	0.000
6908	6907	6906	6905	3	16.027	-4.391	-14.029	2.393	-0.000	0.000
6907	6906	6905	6904	3	30.334	0.000	-30.334	-0.000	-0.000	0.000
6916	6915	6914	6913	3	58.576	0.000	-58.576	-0.000	-0.000	0.000
6901	6893	6894	6900	3	9.079	0.000	-9.079	-0.000	-0.000	0.000
6900	6894	6893	6892	3	9.079	0.000	-9.079	-0.000	-0.000	0.000
6901	6893	6894	6895	3	9.079	0.000	-9.079	-0.000	-0.000	0.000
6895	6894	6893	6892	3	9.079	0.000	-9.079	-0.000	-0.000	0.000
6900	6894	6895	6896	3	30.334	0.000	-30.334	-0.000	-0.000	0.000
6901	6893	6892	6891	3	30.334	0.000	-30.334	-0.000	-0.000	0.000
6899	6900	6894	6893	3	30.334	0.000	-30.334	-0.000	-0.000	0.000
6902	6901	6893	6894	3	30.334	0.000	-30.334	-0.000	-0.000	0.000
6896	6895	6894	6893	3	30.334	0.000	-30.334	-0.000	-0.000	0.000
6899	6900	6894	6895	3	30.334	0.000	-30.334	-0.000	-0.000	0.000
6902	6901	6893	6892	3	30.334	0.000	-30.334	-0.000	-0.000	0.000
6942	6906	6907	6908	3	16.027	-4.391	-14.029	2.393	-0.000	0.000
6897	6899	6900	6894	3	30.334	0.000	-30.334	-0.000	-0.000	0.000
6897	6896	6895	6894	3	30.334	0.000	-30.334	-0.000	-0.000	0.000
6943	6942	6906	6907	3	30.334	0.000	-30.334	-0.000	-0.000	0.000
6932	6927	6928	6929	3	30.334	0.000	-30.334	-0.000	-0.000	0.000
6943	6942	6906	6905	3	30.334	0.000	-30.334	-0.000	-0.000	0.000
6902	6890	6891	6892	3	30.334	0.000	-30.334	-0.000	-0.000	0.000
6942	6943	6903	6904	3	30.334	0.000	-30.334	-0.000	-0.000	0.000
6932	6931	6930	6929	3	30.334	0.000	-30.334	-0.000	-0.000	0.000
6931	6930	6929	6928	3	30.334	0.000	-30.334	-0.000	-0.000	0.000
6930	6929	6928	6927	3	30.334	0.000	-30.334	-0.000	-0.000	0.000
6906	6905	6904	6903	3	30.334	0.000	-30.334	-0.000	-0.000	0.000
6906	6942	6943	6903	3	30.334	0.000	-30.334	-0.000	-0.000	0.000
6943	6903	6904	6905	3	30.334	0.000	-30.334	-0.000	-0.000	0.000
6942	6906	6905	6904	3	30.334	0.000	-30.334	-0.000	-0.000	0.000
6931	6932	6927	6928	3	30.334	0.000	-30.334	-0.000	-0.000	0.000
6900	6899	6897	6896	3	30.334	0.000	-30.334	-0.000	-0.000	0.000
6901	6902	6890	6891	3	30.334	0.000	-30.334	-0.000	-0.000	0.000
6930	6931	6932	6927	3	30.334	0.000	-30.334	-0.000	-0.000	0.000
6899	6897	6896	6895	3	30.334	0.000	-30.334	-0.000	-0.000	0.000
6931	6932	6927	6926	3	30.334	0.000	-30.334	-0.000	-0.000	0.000
6929	6928	6927	6926	3	30.334	0.000	-30.334	-0.000	-0.000	0.000
6942	6943	6903	6886	3	30.334	0.000	-30.334	-0.000	-0.000	0.000
6905	6904	6903	6886	3	30.334	0.000	-30.334	-0.000	-0.000	0.000
6900	6899	6897	6898	3	0.0	0.0	0.0	-0.0	-0.0	0.0
6892	6891	6890	6889	3	30.334	0.000	-30.334	-0.000	-0.000	0.000
6901	6902	6890	6889	3	30.334	0.000	-30.334	-0.000	-0.000	0.000
6932	6927	6926	6915	3	0.000	0.000	0.000	-0.000	-0.000	0.000
6928	6927	6926	6915	3	0.000	0.000	0.000	-0.000	-0.000	0.000
6932	6927	6926	6925	3	0.000	0.000	0.000	-0.000	-0.000	0.000
6928	6927	6926	6925	3	0.000	0.000	0.000	-0.000	-0.000	0.000
6943	6903	6886	6887	3	5.184	35.932	-14.355	-26.761	-0.000	0.000
6904	6903	6886	6887	3	5.184	35.932	-14.355	-26.761	-0.000	0.000
6904	6903	6886	6885	3	5.184	35.932	-14.355	-26.761	-0.000	0.000
6943	6903	6886	6885	3	5.184	35.932	-14.355	-26.761	-0.000	0.000
6891	6890	6889	6888	3	12.552	0.000	-12.552	-0.000	-0.000	0.000
6902	6890	6889	6888	3	12.552	0.000	-12.552	-0.000	-0.000	0.000
6927	6926	6915	6914	3	6.322	-2.485	0.707	-4.544	-0.000	0.000
6927	6926	6915	6916	3	0.527	-6.397	-1.695	7.565	-0.000	0.000
6927	6926	6925	6919	3	1.715	2.845	1.046	-5.607	-0.000	0.000
6903	6886	6887	6888	3	1.789	3.492	0.536	-5.816	-0.000	0.000
6890	6889	6888	6887	3	1.715	2.845	1.046	-5.607	-0.000	0.000
6933	6926	6927	6928	3	0.000	0.000	0.000	-0.000	-0.000	0.000
6933	6926	6927	6932	3	0.000	0.000	0.000	-0.000	-0.000	0.000
6933	6926	6915	6914	3	6.322	-2.485	0.707	-4.544	-0.000	0.000
6933	6926	6915	6916	3	0.527	-6.397	-1.695	7.565	-0.000	0.000
6933	6926	6925	6919	3	1.715	2.845	1.046	-5.607	-0.000	0.000
6915	6914	6913	6912	3	21.738	2.408	-16.966	-7.180	-0.000	0.000
6920	6919	6916	6915	3	21.738	2.408	-16.966	-7.180	-0.000	0.000
6920	6919	6916	6917	3	-0.778	-2.335	0.000	3.113	-0.000	0.000
6941	6909	6908	6907	3	58.576	0.000	-58.576	-0.000	-0.000	0.000
6937	6911	6910	6909	3	58.576	0.000	-58.576	-0.000	-0.000	0.000
6941	6909	6910	6911	3	58.576	0.000	-58.576	-0.000	-0.000	0.000
6937	6911	6912	6913	3	58.576	0.000	-58.576	-0.000	-0.000	0.000
6926	6915	6914	6913	3	-0.778	-2.335	0.000	3.113	-0.000	0.000
6926	6915	6916	6919	3	58.576	0.000	-58.576	-0.000	-0.000	0.000
6926	6915	6916	6917	3	58.576	0.000	-58.576	-0.000	-0.000	0.000
6938	6941	6909	6908	3	0.527	-6.397	-1.695	7.565	-0.000	0.000
6938	6937	6911	6912	3	0.527	-6.397	-1.695	7.565	-0.000	0.000
6938	6937	6911	6910	3	0.527	-6.397	-1.695	7.565	-0.000	0.000
6938	6941	6909	6910	3	0.527	-6.397	-1.695	7.565	-0.000	0.000
6941	6938	6937	6911	3	2.301	-1.464	0.837	-1.674	-0.000	0.000
6940	6938	6941	6909	3	2.301	-1.464	0.837	-1.674	-0.000	0.000
6937	6938	6941	6909	3	2.301	-1.464	0.837	-1.674	-0.000	0.000
6939	6938	6941	6909	3	2.301	-1.464	0.837	-1.674	-0.000	0.000
6940	6938	6937	6911	3	2.301	-1.464	0.837	-1.674	-0.000	0.000
6939	6938	6937	6911	3	2.301	-1.464	0.837	-1.674	-0.000	0.000
6888	6887	6886	6885	3	1.789	3.492	0.536	-5.816	-0.000	0.000
6926	6925	6919	6916	3	30.334	0.000	-30.334	-0.000	-0.000	0.000
6926	6925	6919	6920	3	30.334	0.000	-30.334	-0.000	-0.000	0.000
6919	6916	6915	6914	3	58.576	0.000	-58.576	-0.000	-0.000	0.000
6919	6925	6926	6915	3	1.715	2.845	1.046	-5.607	-0.000	0.000
6917	6916	6915	6914	3	58.576	0.000	-58.576	-0.000	-0.000	0.000
6921	6920	6919	6916	3	58.576	0.000	-58.576	-0.000	-0.000	0.000
6923	6920	6919	6916	3	58.576	0.000	-58.576	-0.000	-0.000	0.000
6934	6933	6926	6927	3	0.000	0.000	0.000	-0.000	-0.000	0.000
6935	6933	6926	6927	3	0.000	0.000	0.000	-0.000	-0.000	0.000
6936	6933	6926	6927	3	0.000	0.000	0.000	-0.000	-0.000	0.000
6935	6933	6926	6915	3	0.000	0.000	0.000	-0.000	-0.000	0.000
6934	6933	6926	6915	3	0.000	0.000	0.000	-0.000	-0.000	0.000
6936	6933	6926	6915	3	0.000	0.000	0.000	-0.000	-0.000	0.000
6935	6933	6926	6925	3	1.130	3.389	0.000	-4.519	-0.000	0.000
6936	6933	6926	6925	3	1.130	3.389	0.000	-4.519	-0.000	0.000
6934	6933	6926	6925	3	1.130	3.389	0.000	-4.519	-0.000	0.000
6964	6910	6909	6908	3	58.576	0.000	-58.576	-0.000	-0.000	0.000
6964	6910	6911	6912	3	58.576	0.000	-58.576	-0.000	-0.000	0.000
6964	6910	6911	6937	3	58.576	0.000	-58.576	-0.000	-0.000	0.000
6964	6910	6909	6941	3	58.576	0.000	-58.576	-0.000	-0.000	0.000
6953	6895	6894	6893	3	30.334	0.000	-30.334	-0.000	-0.000	0.000
6952	6892	6893	6894	3	30.334	0.000	-30.334	-0.000	-0.000	0.000
6958	6901	6893	6894	3	30.334	0.000	-30.334	-0.000	-0.000	0.000
6957	6900	6894	6893	3	30.334	0.000	-30.334	-0.000	-0.000	0.000
6957	6900	6894	6895	3	30.334	0.000	-30.334	-0.000	-0.000	0.000
6953	6895	6894	6900	3	30.334	0.000	-30.334	-0.000	-0.000	0.000
6952	6892	6893	6901	3	30.334	0.000	-30.334	-0.000	-0.000	0.000
6958	6901	6893	6892	3	30.334	0.000	-30.334	-0.000	-0.000	0.000
6951	6891	6892	6893	3	30.334	0.000	-30.334	-0.000	-0.000	0.000
6959	6902	6901	6893	3	30.334	0.000	-30.334	-0.000	-0.000	0.000
6954	6896	6895	6894	3	30.334	0.000	-30.334	-0.000	-0.000	0.000
6956	6899	6900	6894	3	30.334	0.000	-30.334	-0.000	-0.000	0.000
6961	6905	6906	6907	3	30.334	0.000	-30.334	-0.000	-0.000	0.000
6983	6942	6906	6907	3	30.334	0.000	-30.334	-0.000	-0.000	0.000
6968	6928	6929	6930	3	30.334	0.000	-30.334	-0.000	-0.000	0.000
6956	6899	6897	6896	3	30.334	0.000	-30.334	-0.000	-0.000	0.000
6971	6931	6930	6929	3	30.334	0.000	-30.334	-0.000	-0.000	0.000
6983	6942	6943	6903	3	30.334	0.000	-30.334	-0.000	-0.000	0.000
6969	6929	6928	6927	3	30.334	0.000	-30.334	-0.000	-0.000	0.000
6984	6943	6942	6906	3	30.334	0.000	-30.334	-0.000	-0.000	0.000
6970	6930	6929	6928	3	30.334	0.000	-30.334	-0.000	-0.000	0.000
6959	6902	6890	6891	3	30.334	0.000	-30.334	-0.000	-0.000	0.000
6958	6901	6902	6890	3	30.334	0.000	-30.334	-0.000	-0.000	0.000
6983	6942	6906	6905	3	30.334	0.000	-30.334	-0.000	-0.000	0.000
6984	6943	6903	6904	3	30.334	0.000	-30.334	-0.000	-0.000	0.000
6971	6931	6932	6927	3	30.334	0.000	-30.334	-0.000	-0.000	0.000
6968	6928	6927	6932	3	30.334	0.000	-30.334	-0.000	-0.000	0.000
6953	6895	6896	6897	3	30.334	0.000	-30.334	-0.000	-0.000	0.000
6954	6896	6897	6899	3	30.334	0.000	-30.334	-0.000	-0.000	0.000
6951	6891	6890	6902	3	30.334	0.000	-30.334	-0.000	-0.000	0.000
6960	6904	6903	6943	3	30.334	0.000	-30.334	-0.000	-0.000	0.000
6960	6904	6905	6906	3	30.334	0.000	-30.334	-0.000	-0.000	0.000
6957	6900	6899	6897	3	30.334	0.000	-30.334	-0.000	-0.000	0.000
6961	6905	6906	6942	3	30.334	0.000	-30.334	-0.000	-0.000	0.000
6970	6930	6931	6932	3	30.334	0.000	-30.334	-0.000	-0.000	0.000
6972	6932	6931	6930	3	30.334	0.000	-30.334	-0.000	-0.000	0.000
6969	6929	6930	6931	3	30.334	0.000	-30.334	-0.000	-0.000	0.000
6972	6932	6927	6928	3	30.334	0.000	-30.334	-0.000	-0.000	0.000
6952	6892	6891	6890	3	30.334	0.000	-30.334	-0.000	-0.000	0.000
6961	6905	6904	6903	3	30.334	0.000	-30.334	-0.000	-0.000	0.000
6972	6932	6927	6926	3	30.334	0.000	-30.334	-0.000	-0.000	0.000
6968	6928	6927	6926	3	30.334	0.000	-30.334	-0.000	-0.000	0.000
6961	6905	6904	6960	3	30.334	0.000	-30.334	-0.000	-0.000	0.000
6984	6943	6942	6983	3	30.334	0.000	-30.334	-0.000	-0.000	0.000
6970	6930	6929	6969	3	30.334	0.000	-30.334	-0.000	-0.000	0.000
6954	6896	6895	6953	3	30.334	0.000	-30.334	-0.000	-0.000	0.000
6959	6902	6901	6958	3	30.334	0.000	-30.334	-0.000	-0.000	0.000
6957	6900	6899	6956	3	30.334	0.000	-30.334	-0.000	-0.000	0.000
6969	6929	6928	6968	3	30.334	0.000	-30.334	-0.000	-0.000	0.000
6952	6892	6891	6951	3	30.334	0.000	-30.334	-0.000	-0.000	0.000
6971	6931	6930	6970	3	30.334	0.000	-30.334	-0.000	-0.000	0.000
6972	6932	6931	6971	3	30.334	0.000	-30.334	-0.000	-0.000	0.000
6984	6943	6903	6886	3	30.334	0.000	-30.334	-0.000	-0.000	0.000
6960	6904	6903	6886	3	30.334	0.000	-30.334	-0.000	-0.000	0.000
6954	6896	6897	6898	3	0.0	0.0	0.0	-0.0	-0.0	0.0
6956	6899	6897	6898	3	0.0	0.0	0.0	-0.0	-0.0	0.0
6951	6891	6890	6889	3	30.334	0.000	-30.334	-0.000	-0.000	0.000
6959	6902	6890	6889	3	30.334	0.000	-30.334	-0.000	-0.000	0.000
6965	6912	6911	6910	3	58.576	0.000	-58.576	-0.000	-0.000	0.000
6965	6912	6913	6914	3	58.576	0.000	-58.576	-0.000	-0.000	0.000
6967	6914	6913	6912	3	58.576	0.000	-58.576	-0.000	-0.000	0.000
6966	6913	6912	6911	3	58.576	0.000	-58.576	-0.000	-0.000	0.000
6963	6908	6909	6910	3	58.576	0.000	-58.576	-0.000	-0.000	0.000
6962	6907	6908	6909	3	58.576	0.000	-58.576	-0.000	-0.000	0.000
6963	6908	6907	6906	3	58.576	0.000	-58.576	-0.000	-0.000	0.000
6966	6913	6914	6915	3	58.576	0.000	-58.576	-0.000	-0.000	0.000
6965	6912	6911	6937	3	58.576	0.000	-58.576	-0.000	-0.000	0.000
6963	6908	6909	6941	3	58.576	0.000	-58.576	-0.000	-0.000	0.000
6963	6908	6907	6962	3	58.576	0.000	-58.576	-0.000	-0.000	0.000
6966	6913	6912	6965	3	58.576	0.000	-58.576	-0.000	-0.000	0.000
6967	6914	6913	6966	3	58.576	0.000	-58.576	-0.000	-0.000	0.000
6962	6907	6906	6942	3	-0.778	-2.335	0.000	3.113	-0.000	0.000
6962	6907	6906	6905	3	-0.778	-2.335	0.000	3.113	-0.000	0.000
6967	6914	6915	6916	3	58.576	0.000	-58.576	-0.000	-0.000	0.000
6967	6914	6915	6926	3	58.576	0.000	-58.576	-0.000	-0.000	0.000
6981	6941	6909	6908	3	-0.778	-2.335	0.000	3.113	-0.000	0.000
6981	6941	6909	6910	3	-0.778	-2.335	0.000	3.113	-0.000	0.000
6982	6941	6909	6908	3	-0.778	-2.335	0.000	3.113	-0.000	0.000
6974	6937	6911	6912	3	-0.778	-2.335	0.000	3.113	-0.000	0.000
6982	6941	6909	6910	3	-0.778	-2.335	0.000	3.113	-0.000	0.000
6973	6937	6911	6910	3	-0.778	-2.335	0.000	3.113	-0.000	0.000
6974	6937	6911	6910	3	-0.778	-2.335	0.000	3.113	-0.000	0.000
6973	6937	6911	6912	3	-0.778	-2.335	0.000	3.113	-0.000	0.000
6976	6939	6938	6941	3	0.628	1.883	0.000	-2.510	-0.000	0.000
6975	6939	6938	6940	3	0.628	1.883	0.000	-2.510	-0.000	0.000
6975	6939	6938	6937	3	0.628	1.883	0.000	-2.510	-0.000	0.000
6977	6939	6938	6940	3	0.628	1.883	0.000	-2.510	-0.000	0.000
6979	6940	6938	6937	3	0.628	1.883	0.000	-2.510	-0.000	0.000
6978	6940	6938	6937	3	0.628	1.883	0.000	-2.510	-0.000	0.000
6977	6939	6938	6937	3	0.628	1.883	0.000	-2.510	-0.000	0.000
6979	6940	6938	6939	3	0.628	1.883	0.000	-2.510	-0.000	0.000
6976	6939	6938	6937	3	0.628	1.883	0.000	-2.510	-0.000	0.000
6981	6941	6938	6937	3	0.628	1.883	0.000	-2.510	-0.000	0.000
6981	6941	6938	6939	3	0.628	1.883	0.000	-2.510	-0.000	0.000
6974	6937	6938	6939	3	0.628	1.883	0.000	-2.510	-0.000	0.000
6977	6939	6938	6941	3	0.628	1.883	0.000	-2.510	-0.000	0.000
6974	6937	6938	6940	3	0.628	1.883	0.000	-2.510	-0.000	0.000
6982	6941	6938	6939	3	0.628	1.883	0.000	-2.510	-0.000	0.000
6978	6940	6938	6941	3	0.628	1.883	0.000	-2.510	-0.000	0.000
6979	6940	6938	6941	3	0.628	1.883	0.000	-2.510	-0.000	0.000
6980	6940	6938	6937	3	0.628	1.883	0.000	-2.510	-0.000	0.000
6973	6937	6938	6940	3	0.628	1.883	0.000	-2.510	-0.000	0.000
6973	6937	6938	6939	3	0.628	1.883	0.000	-2.510	-0.000	0.000
6978	6940	6938	6939	3	0.628	1.883	0.000	-2.510	-0.000	0.000
6974	6937	6938	6941	3	0.628	1.883	0.000	-2.510	-0.000	0.000
6982	6941	6938	6940	3	0.628	1.883	0.000	-2.510	-0.000	0.000
6976	6939	6938	6940	3	0.628	1.883	0.000	-2.510	-0.000	0.000
6975	6939	6938	6941	3	0.628	1.883	0.000	-2.510	-0.000	0.000
6982	6941	6938	6937	3	0.628	1.883	0.000	-2.510	-0.000	0.000
6973	6937	6938	6941	3	0.628	1.883	0.000	-2.510	-0.000	0.000
6980	6940	6938	6939	3	0.628	1.883	0.000	-2.510	-0.000	0.000
6981	6941	6938	6940	3	0.628	1.883	0.000	-2.510	-0.000	0.000
6980	6940	6938	6941	3	0.628	1.883	0.000	-2.510	-0.000	0.000
6949	6888	6887	6948	3	0.628	1.883	0.000	-2.510	-0.000	0.000
6950	6888	6887	6947	3	0.628	1.883	0.000	-2.510	-0.000	0.000
6949	6888	6887	6947	3	0.628	1.883	0.000	-2.510	-0.000	0.000
6950	6888	6887	6948	3	0.628	1.883	0.000	-2.510	-0.000	0.000
6950	6888	6887	6886	3	-4.096	5.088	2.966	-3.958	-0.000	0.000
6949	6888	6887	6886	3	-4.096	5.088	2.966	-3.958	-0.000	0.000
6948	6887	6888	6889	3	0.979	2.937	0.000	-3.916	-0.000	0.000
6947	6887	6888	6889	3	0.979	2.937	0.000	-3.916	-0.000	0.000
6948	6887	6886	6903	3	1.172	3.515	0.000	-4.686	-0.000	0.000
6944	6885	6886	6903	3	1.172	3.515	0.000	-4.686	-0.000	0.000
6947	6887	6886	6903	3	1.172	3.515	0.000	-4.686	-0.000	0.000
6945	6885	6886	6903	3	1.172	3.515	0.000	-4.686	-0.000	0.000
6946	6885	6886	6903	3	1.172	3.515	0.000	-4.686	-0.000	0.000
6947	6887	6886	6885	3	1.172	3.515	0.000	-4.686	-0.000	0.000
6945	6885	6886	6887	3	1.172	3.515	0.000	-4.686	-0.000	0.000
6948	6887	6886	6885	3	1.172	3.515	0.000	-4.686	-0.000	0.000
6946	6885	6886	6887	3	1.172	3.515	0.000	-4.686	-0.000	0.000
6944	6885	6886	6887	3	1.172	3.515	0.000	-4.686	-0.000	0.000
6949	6888	6889	6890	3	1.590	4.770	0.000	-6.360	-0.000	0.000
6950	6888	6889	6890	3	1.590	4.770	0.000	-6.360	-0.000	0.000
6955	6898	6897	6899	3	0.0	0.0	0.0	-0.0	-0.0	0.0
6955	6898	6897	6896	3	0.0	0.0	0.0	-0.0	-0.0	0.0
6898	6897	6896	6895	3	0.0	0.0	0.0	-0.0	-0.0	0.0
6925	6926	6915	6914	3	2.874	0.582	2.092	-5.548	-0.000	0.000
6925	6926	6915	6916	3	1.046	-1.046	0.000	-0.000	-0.000	0.000
6889	6888	6887	6886	3	16.736	-16.736	0.000	-0.000	-0.000	0.000
6925	6919	6916	6915	3	1.046	-1.046	0.000	-0.000	-0.000	0.000
6925	6919	6916	6917	3	9.079	0.000	-9.079	-0.000	-0.000	0.000
6994	6993	6992	6991	3	30.334	0.000	-30.334	-0.000	-0.000	0.000
6993	7001	7002	6990	3	30.334	0.000	-30.334	-0.000	-0.000	0.000
6993	6992	6991	6990	3	30.334	0.000	-30.334	-0.000	-0.000	0.000
7014	7013	7012	7011	3	21.738	2.408	-16.966	-7.180	-0.000	0.000
7010	7009	7008	7007	3	21.738	2.408	-16.966	-7.180	-0.000	0.000
7011	7010	7009	7008	3	21.738	2.408	-16.966	-7.180	-0.000	0.000
7012	7011	7010	7009	3	21.738	2.408	-16.966	-7.180	-0.000	0.000
7013	7012	7011	7010	3	21.738	2.408	-16.966	-7.180	-0.000	0.000
7009	7008	7007	7006	3	58.576	0.000	-58.576	-0.000	-0.000	0.000
7008	7007	7006	7005	3	16.027	-4.391	-14.029	2.393	-0.000	0.000
7007	7006	7005	7004	3	30.334	0.000	-30.334	-0.000	-0.000	0.000
7016	7015	7014	7013	3	58.576	0.000	-58.576	-0.000	-0.000	0.000
7001	6993	6994	7000	3	9.079	0.000	-9.079	-0.000	-0.000	0.000
7000	6994	6993	6992	3	9.079	0.000	-9.079	-0.000	-0.000	0.000
7001	6993	6994	6995	3	9.079	0.000	-9.079	-0.000	-0.000	0.000
6995	6994	6993	6992	3	9.079	0.000	-9.079	-0.000	-0.000	0.000
7000	6994	6995	6996	3	30.334	0.000	-30.334	-0.000	-0.000	0.000
7001	6993	6992	6991	3	30.334	0.000	-30.334	-0.000	-0.000	0.000
6999	7000	6994	6993	3	30.334	0.000	-30.334	-0.000	-0.000	0.000
7002	7001	6993	6994	3	30.334	0.000	-30.334	-0.000	-0.000	0.000
6996	6995	6994	6993	3	30.334	0.000	-30.334	-0.000	-0.000	0.000
6999	7000	6994	6995	3	30.334	0.000	-30.334	-0.000	-0.000	0.000
7002	7001	6993	6992	3	30.334	0.000	-30.334	-0.000	-0.000	0.000
7042	7006	7007	7008	3	16.027	-4.391	-14.029	2.393	-0.000	0.000
6997	6999	7000	6994	3	30.334	0.000	-30.334	-0.000	-0.000	0.000
6997	6996	6995	6994	3	30.334	0.000	-30.334	-0.000	-0.000	0.000
7043	7042	7006	7007	3	30.334	0.000	-30.334	-0.000	-0.000	0.000
7032	7027	7028	7029	3	30.334	0.000	-30.334	-0.000	-0.000	0.000
7043	7042	7006	7005	3	30.334	0.000	-30.334	-0.000	-0.000	0.000
7002	6990	6991	6992	3	30.334	0.000	-30.334	-0.000	-0.000	0.000
7042	7043	7003	7004	3	30.334	0.000	-30.334	-0.000	-0.000	0.000
7032	7031	7030	7029	3	30.334	0.000	-30.334	-0.000	-0.000	0.000
7031	7030	7029	7028	3	30.334	0.000	-30.334	-0.000	-0.000	0.000
7030	7029	7028	7027	3	30.334	0.000	-30.334	-0.000	-0.000	0.000
7006	7005	7004	7003	3	30.334	0.000	-30.334	-0.000	-0.000	0.000
7006	7042	7043	7003	3	30.334	0.000	-30.334	-0.000	-0.000	0.000
7043	7003	7004	7005	3	30.334	0.000	-30.334	-0.000	-0.000	0.000
7042	7006	7005	7004	3	30.334	0.000	-30.334	-0.000	-0.000	0.000
7031	7032	7027	7028	3	30.334	0.000	-30.334	-0.000	-0.000	0.000
7000	6999	6997	6996	3	30.334	0.000	-30.334	-0.000	-0.000	0.000
7001	7002	6990	6991	3	30.334	0.000	-30.334	-0.000	-0.000	0.000
7030	7031	7032	7027	3	30.334	0.000	-30.334	-0.000	-0.000	0.000
6999	6997	6996	6995	3	30.334	0.000	-30.334	-0.000	-0.000	0.000
7031	7032	7027	7026	3	30.334	0.000	-30.334	-0.000	-0.000	0.000
7029	7028	7027	7026	3	30.334	0.000	-30.334	-0.000	-0.000	0.000
7042	7043	7003	6986	3	30.334	0.000	-30.334	-0.000	-0.000	0.000
7005	7004	7003	6986	3	30.334	0.000	-30.334	-0.000	-0.000	0.000
7000	6999	6997	6998	3	0.0	0.0	0.0	-0.0	-0.0	0.0
6992	6991	6990	6989	3	30.334	0.000	-30.334	-0.000	-0.000	0.000
7001	7002	6990	6989	3	30.334	0.000	-30.334	-0.000	-0.000	0.000
7032	7027	7026	7015	3	0.000	0.000	0.000	-0.000	-0.000	0.000
7028	7027	7026	7015	3	0.000	0.000	0.000	-0.000	-0.000	0.000
7032	7027	7026	7025	3	0.000	0.000	0.000	-0.000	-0.000	0.000
7028	7027	7026	7025	3	0.000	0.000	0.000	-0.000	-0.000	0.000
7043	7003	6986	6987	3	5.184	35.932	-14.355	-26.761	-0.000	0.000
7004	7003	6986	6987	3	5.184	35.932	-14.355	-26.761	-0.000	0.000
7004	7003	6986	6985	3	5.184	35.932	-14.355	-26.761	-0.000	0.000
7043	7003	6986	6985	3	5.184	35.932	-14.355	-26.761	-0.000	0.000
6991	6990	6989	6988	3	12.552	0.000	-12.552	-0.000	-0.000	0.000
7002	6990	6989	6988	3	12.552	0.000	-12.552	-0.000	-0.000	0.000
7027	7026	7015	7014	3	6.322	-2.485	0.707	-4.544	-0.000	0.000
7027	7026	7015	7016	3	0.527	-6.397	-1.695	7.565	-0.000	0.000
7027	7026	7025	7019	3	1.715	2.845	1.046	-5.607	-0.000	0.000
7003	6986	6987	6988	3	1.789	3.492	0.536	-5.816	-0.000	0.000
6990	6989	6988	6987	3	1.715	2.845	1.046	-5.607	-0.000	0.000
7033	7026	7027	7028	3	0.000	0.000	0.000	-0.000	-0.000	0.000
7033	7026	7027	7032	3	0.000	0.000	0.000	-0.000	-0.000	0.000
7033	7026	7015	7014	3	6.322	-2.485	0.707	-4.544	-0.000	0.000
7033	7026	7015	7016	3	0.527	-6.397	-1.695	7.565	-0.000	0.000
7033	7026	7025	7019	3	1.715	2.845	1.046	-5.607	-0.000	0.000
7015	7014	7013	7012	3	21.738	2.408	-16.966	-7.180	-0.000	0.000
7020	7019	7016	7015	3	21.738	2.408	-16.966	-7.180	-0.000	0.000
7020	7019	7016	7017	3	-0.778	-2.335	0.000	3.113	-0.000	0.000
7041	7009	7008	7007	3	58.576	0.000	-58.576	-0.000	-0.000	0.000
7037	7011	7010	7009	3	58.576	0.000	-58.576	-0.000	-0.000	0.000
7041	7009	7010	7011	3	58.576	0.000	-58.576	-0.000	-0.000	0.000
7037	7011	7012	7013	3	58.576	0.000	-58.576	-0.000	-0.000	0.000
7026	7015	7014	7013	3	-0.778	-2.335	0.000	3.113	-0.000	0.000
7026	7015	7016	7019	3	58.576	0.000	-58.576	-0.000	-0.000	0.000
7026	7015	7016	7017	3	58.576	0.000	-58.576	-0.000	-0.000	0.000
7038	7041	7009	7008	3	0.527	-6.397	-1.695	7.565	-0.000	0.000
7038	7037	7011	7012	3	0.527	-6.397	-1.695	7.565	-0.000	0.000
7038	7037	7011	7010	3	0.527	-6.397	-1.695	7.565	-0.000	0.000
7038	7041	7009	7010	3	0.527	-6.397	-1.695	7.565	-0.000	0.000
7041	7038	7037	7011	3	2.301	-1.464	0.837	-1.674	-0.000	0.000
7040	7038	7041	7009	3	2.301	-1.464	0.837	-1.674	-0.000	0.000
7037	7038	7041	7009	3	2.301	-1.464	0.837	-1.674	-0.000	0.000
7039	7038	7041	7009	3	2.301	-1.464	0.837	-1.674	-0.000	0.000
7040	7038	7037	7011	3	2.301	-1.464	0.837	-1.674	-0.000	0.000
7039	7038	7037	7011	3	2.301	-1.464	0.837	-1.674	-0.000	0.000
6988	6987	6986	6985	3	1.789	3.492	0.536	-5.816	-0.000	0.000
7026	7025	7019	7016	3	30.334	0.000	-30.334	-0.000	-0.000	0.000
7026	7025	7019	7020	3	30.334	0.000	-30.334	-0.000	-0.000	0.000
7019	7016	7015	7014	3	58.576	0.000	-58.576	-0.000	-0.000	0.000
7019	7025	7026	7015	3	1.715	2.845	1.046	-5.607	-0.000	0.000
7017	7016	7015	7014	3	58.576	0.000	-58.576	-0.000	-0.000	0.000
7021	7020	7019	7016	3	58.576	0.000	-58.576	-0.000	-0.000	0.000
7023	7020	7019	7016	3	58.576	0.000	-58.576	-0.000	-0.000	0.000
7034	7033	7026	7027	3	0.000	0.000	0.000	-0.000	-0.000	0.000
7035	7033	7026	7027	3	0.000	0.000	0.000	-0.000	-0.000	0.000
7036	7033	7026	7027	3	0.000	0.000	0.000	-0.000	-0.000	0.000
7035	7033	7026	7015	3	0.000	0.000	0.000	-0.000	-0.000	0.000
7034	7033	7026	7015	3	0.000	0.000	0.000	-0.000	-0.000	0.000
7036	7033	7026	7015	3	0.000	0.000	0.000	-0.000	-0.000	0.000
7035	7033	7026	7025	3	1.130	3.389	0.000	-4.519	-0.000	0.000
7036	7033	7026	7025	3	1.130	3.389	0.000	-4.519	-0.000	0.000
7034	7033	7026	7025	3	1.130	3.389	0.000	-4.519	-0.000	0.000
7064	7010	7009	7008	3	58.576	0.000	-58.576	-0.000	-0.000	0.000
7064	7010	7011	7012	3	58.576	0.000	-58.576	-0.000	-0.000	0.000
7064	7010	7011	7037	3	58.576	0.000	-58.576	-0.000	-0.000	0.000
7064	7010	7009	7041	3	58.576	0.000	-58.576	-0.000	-0.000	0.000
7053	6995	6994	6993	3	30.334	0.000	-30.334	-0.000	-0.000	0.000
7052	6992	6993	6994	3	30.334	0.000	-30.334	-0.000	-0.000	0.000
7058	7001	6993	6994	3	30.334	0.000	-30.334	-0.000	-0.000	0.000
7057	7000	6994	6993	3	30.334	0.000	-30.334	-0.000	-0.000	0.000
7057	7000	6994	6995	3	30.334	0.000	-30.334	-0.000	-0.000	0.000
7053	6995	6994	7000	3	30.334	0.000	-30.334	-0.000	-0.000	0.000
7052	6992	6993	7001	3	30.334	0.000	-30.334	-0.000	-0.000	0.000
7058	7001	6993	6992	3	30.334	0.000	-30.334	-0.000	-0.000	0.000
7051	6991	6992	6993	3	30.334	0.000	-30.334	-0.000	-0.000	0.000
7059	7002	7001	6993	3	30.334	0.000	-30.334	-0.000	-0.000	0.000
7054	6996	6995	6994	3	30.334	0.000	-30.334	-0.000	-0.000	0.000
7056	6999	7000	6994	3	30.334	0.000	-30.334	-0.000	-0.000	0.000
7061	7005	7006	7007	3	30.334	0.000	-30.334	-0.000	-0.000	0.000
7083	7042	7006	7007	3	30.334	0.000	-30.334	-0.000	-0.000	0.000
7068	7028	7029	7030	3	30.334	0.000	-30.334	-0.000	-0.000	0.000
7056	6999	6997	6996	3	30.334	0.000	-30.334	-0.000	-0.000	0.000
7071	7031	7030	7029	3	30.334	0.000	-30.334	-0.000	-0.000	0.000
7083	7042	7043	7003	3	30.334	0.000	-30.334	-0.000	-0.000	0.000
7069	7029	7028	7027	3	30.334	0.000	-30.334	-0.000	-0.000	0.000
7084	7043	7042	7006	3	30.334	0.000	-30.334	-0.000	-0.000	0.000
7070	7030	7029	7028	3	30.334	0.000	-30.334	-0.000	-0.000	0.000
7059	7002	6990	6991	3	30.334	0.000	-30.334	-0.000	-0.000	0.000
7058	7001	7002	6990	3	30.334	0.000	-30.334	-0.000	-0.000	0.000
7083	7042	7006	7005	3	30.334	0.000	-30.334	-0.000	-0.000	0.000
7084	7043	7003	7004	3	30.334	0.000	-30.334	-0.000	-0.000	0.000
7071	7031	7032	7027	3	30.334	0.000	-30.334	-0.000	-0.000	0.000
7068	7028	7027	7032	3	30.334	0.000	-30.334	-0.000	-0.000	0.000
7053	6995	6996	6997	3	30.334	0.000	-30.334	-0.000	-0.000	0.000
7054	6996	6997	6999	3	30.334	0.000	-30.334	-0.000	-0.000	0.000
7051	6991	6990	7002	3	30.334	0.000	-30.334	-0.000	-0.000	0.000
7060	7004	7003	7043	3	30.334	0.000	-30.334	-0.000	-0.000	0.000
7060	7004	7005	7006	3	30.334	0.000	-30.334	-0.000	-0.000	0.000
7057	7000	6999	6997	3	30.334	0.000	-30.334	-0.000	-0.000	0.000
7061	7005	7006	7042	3	30.334	0.000	-30.334	-0.000	-0.000	0.000
7070	7030	7031	7032	3	30.334	0.000	-30.334	-0.000	-0.000	0.000
7072	7032	7031	7030	3	30.334	0.000	-30.334	-0.000	-0.000	0.000
7069	7029	7030	7031	3	30.334	0.000	-30.334	-0.000	-0.000	0.000
7072	7032	7027	7028	3	30.334	0.000	-30.334	-0.000	-0.000	0.000
7052	6992	6991	6990	3	30.334	0.000	-30.334	-0.000	-0.000	0.000
7061	7005	7004	7003	3	30.334	0.000	-30.334	-0.000	-0.000	0.000
7072	7032	7027	7026	3	30.334	0.000	-30.334	-0.000	-0.000	0.000
7068	7028	7027	7026	3	30.334	0.000	-30.334	-0.000	-0.000	0.000
7061	7005	7004	7060	3	30.334	0.000	-30.334	-0.000	-0.000	0.000
7084	7043	7042	7083	3	30.334	0.000	-30.334	-0.000	-0.000	0.000
7070	7030	7029	7069	3	30.334	0.000	-30.334	-0.000	-0.000	0.000
7054	6996	6995	7053	3	30.334	0.000	-30.334	-0.000	-0.000	0.000
7059	7002	7001	7058	3	30.334	0.000	-30.334	-0.000	-0.000	0.000
7057	7000	6999	7056	3	30.334	0.000	-30.334	-0.000	-0.000	0.000
7069	7029	7028	7068	3	30.334	0.000	-30.334	-0.000	-0.000	0.000
7052	6992	6991	7051	3	30.334	0.000	-30.334	-0.000	-0.000	0.000
7071	7031	7030	7070	3	30.334	0.000	-30.334	-0.000	-0.000	0.000
7072	7032	7031	7071	3	30.334	0.000	-30.334	-0.000	-0.000	0.000
7084	7043	7003	6986	3	30.334	0.000	-30.334	-0.000	-0.000	0.000
7060	7004	7003	6986	3	30.334	0.000	-30.334	-0.000	-0.000	0.000
7054	6996	6997	6998	3	0.0	0.0	0.0	-0.0	-0.0	0.0
7056	6999	6997	6998	3	0.0	0.0	0.0	-0.0	-0.0	0.0
7051	6991	6990	6989	3	30.334	0.000	-30.334	-0.000	-0.000	0.000
7059	7002	6990	6989	3	30.334	0.000	-30.334	-0.000	-0.000	0.000
7065	7012	7011	7010	3	58.576	0.000	-58.576	-0.000	-0.000	0.000
7065	7012	7013	7014	3	58.576	0.000	-58.576	-0.000	-0.000	0.000
7067	7014	7013	7012	3	58.576	0.000	-58.576	-0.000	-0.000	0.000
7066	7013	7012	7011	3	58.576	0.000	-58.576	-0.000	-0.000	0.000
7063	7008	7009	7010	3	58.576	0.000	-58.576	-0.000	-0.000	0.000
7062	7007	7008	7009	3	58.576	0.000	-58.576	-0.000	-0.000	0.000
7063	7008	7007	7006	3	58.576	0.000	-58.576	-0.000	-0.000	0.000
7066	7013	7014	7015	3	58.576	0.000	-58.576	-0.000	-0.000	0.000
7065	7012	7011	7037	3	58.576	0.000	-58.576	-0.000	-0.000	0.000
7063	7008	7009	7041	3	58.576	0.000	-58.576	-0.000	-0.000	0.000
7063	7008	7007	7062	3	58.576	0.000	-58.576	-0.000	-0.000	0.000
7066	7013	7012	7065	3	58.576	0.000	-58.576	-0.000	-0.000	0.000
7067	7014	7013	7066	3	58.576	0.000	-58.576	-0.000	-0.000	0.000
7062	7007	7006	7042	3	-0.778	-2.335	0.000	3.113	-0.000	0.000
7062	7007	7006	7005	3	-0.778	-2.335	0.000	3.113	-0.000	0.000
7067	7014	7015	7016	3	58.576	0.000	-58.576	-0.000	-0.000	0.000
7067	7014	7015	7026	3	58.576	0.000	-58.576	-0.000	-0.000	0.000
7081	7041	7009	7008	3	-0.778	-2.335	0.000	3.113	-0.000	0.000
7081	7041	7009	7010	3	-0.778	-2.335	0.000	3.113	-0.000	0.000
7082	7041	7009	7008	3	-0.778	-2.335	0.000	3.113	-0.000	0.000
7074	7037	7011	7012	3	-0.778	-2.335	0.000	3.113	-0.000	0.000
7082	7041	7009	7010	3	-0.778	-2.335	0.000	3.113	-0.000	0.000
7073	7037	7011	7010	3	-0.778	-2.335	0.000	3.113	-0.000	0.000
7074	7037	7011	7010	3	-0.778	-2.335	0.000	3.113	-0.000	0.000
7073	7037	7011	7012	3	-0.778	-2.335	0.000	3.113	-0.000	0.000
7076	7039	7038	7041	3	0.628	1.883	0.000	-2.510	-0.000	0.000
7075	7039	7038	7040	3	0.628	1.883	0.000	-2.510	-0.000	0.000
7075	7039	7038	7037	3	0.628	1.883	0.000	-2.510	-0.000	0.000
7077	7039	7038	7040	3	0.628	1.883	0.000	-2.510	-0.000	0.000
7079	7040	7038	7037	3	0.628	1.883	0.000	-2.510	-0.000	0.000
7078	7040	7038	7037	3	0.628	1.883	0.000	-2.510	-0.000	0.000
7077	7039	7038	7037	3	0.628	1.883	0.000	-2.510	-0.000	0.000
7079	7040	7038	7039	3	0.628	1.883	0.000	-2.510	-0.000	0.000
7076	7039	7038	7037	3	0.628	1.883	0.000	-2.510	-0.000	0.000
7081	7041	7038	7037	3	0.628	1.883	0.000	-2.510	-0.000	0.000
7081	7041	7038	7039	3	0.628	1.883	0.000	-2.510	-0.000	0.000
7074	7037	7038	7039	3	0.628	1.883	0.000	-2.510	-0.000	0.000
7077	7039	7038	7041	3	0.628	1.883	0.000	-2.510	-0.000	0.000
7074	7037	7038	7040	3	0.628	1.883	0.000	-2.510	-0.000	0.000
7082	7041	7038	7039	3	0.628	1.883	0.000	-2.510	-0.000	0.000
7078	7040	7038	7041	3	0.628	1.883	0.000	-2.510	-0.000	0.000
7079	7040	7038	7041	3	0.628	1.883	0.000	-2.510	-0.000	0.000
7080	7040	7038	7037	3	0.628	1.883	0.000	-2.510	-0.000	0.000
7073	7037	7038	7040	3	0.628	1.883	0.000	-2.510	-0.000	0.000
7073	7037	7038	7039	3	0.628	1.883	0.000	-2.510	-0.000	0.000
7078	7040	7038	7039	3	0.628	1.883	0.000	-2.510	-0.000	0.000
7074	7037	7038	7041	3	0.628	1.883	0.000	-2.510	-0.000	0.000
7082	7041	7038	7040	3	0.628	1.883	0.000	-2.510	-0.000	0.000
7076	7039	7038	7040	3	0.628	1.883	0.000	-2.510	-0.000	0.000
7075	7039	7038	7041	3	0.628	1.883	0.000	-2.510	-0.000	0.000
7082	7041	7038	7037	3	0.628	1.883	0.000	-2.510	-0.000	0.000
7073	7037	7038	7041	3	0.628	1.883	0.000	-2.510	-0.000	0.000
7080	7040	7038	7039	3	0.628	1.883	0.000	-2.510	-0.000	0.000
7081	7041	7038	7040	3	0.628	1.883	0.000	-2.510	-0.000	0.000
7080	7040	7038	7041	3	0.628	1.883	0.000	-2.510	-0.000	0.000
7049	6988	6987	7048	3	0.628	1.883	0.000	-2.510	-0.000	0.000
7050	6988	6987	7047	3	0.628	1.883	0.000	-2.510	-0.000	0.000
7049	6988	6987	7047	3	0.628	1.883	0.000	-2.510	-0.000	0.000
7050	6988	6987	7048	3	0.628	1.883	0.000	-2.510	-0.000	0.000
7050	6988	6987	6986	3	-4.096	5.088	2.966	-3.958	-0.000	0.000
7049	6988	6987	6986	3	-4.096	5.088	2.966	-3.958	-0.000	0.000
7048	6987	6988	6989	3	0.979	2.937	0.000	-3.916	-0.000	0.000
7047	6987	6988	6989	3	0.979	2.937	0.000	-3.916	-0.000	0.000
7048	6987	6986	7003	3	1.172	3.515	0.000	-4.686	-0.000	0.000
7044	6985	6986	7003	3	1.172	3.515	0.000	-4.686	-0.000	0.000
7047	6987	6986	7003	3	1.172	3.515	0.000	-4.686	-0.000	0.000
7045	6985	6986	7003	3	1.172	3.515	0.000	-4.686	-0.000	0.000
7046	6985	6986	7003	3	1.172	3.515	0.000	-4.686	-0.000	0.000
7047	6987	6986	6985	3	1.172	3.515	0.000	-4.686	-0.000	0.000
7045	6985	6986	6987	3	1.172	3.515	0.000	-4.686	-0.000	0.000
7048	6987	6986	6985	3	1.172	3.515	0.000	-4.686	-0.000	0.000
7046	6985	6986	6987	3	1.172	3.515	0.000	-4.686	-0.000	0.000
7044	6985	6986	6987	3	1.172	3.515	0.000	-4.686	-0.000	0.000
7049	6988	6989	6990	3	1.590	4.770	0.000	-6.360	-0.000	0.000
7050	6988	6989	6990	3	1.590	4.770	0.000	-6.360	-0.000	0.000
7055	6998	6997	6999	3	0.0	0.0	0.0	-0.0	-0.0	0.0
7055	6998	6997	6996	3	0.0	0.0	0.0	-0.0	-0.0	0.0
6998	6997	6996	6995	3	0.0	0.0	0.0	-0.0	-0.0	0.0
7025	7026	7015	7014	3	2.874	0.582	2.092	-5.548	-0.000	0.000
7025	7026	7015	7016	3	1.046	-1.046	0.000	-0.000	-0.000	0.000
6989	6988	6987	6986	3	16.736	-16.736	0.000	-0.000	-0.000	0.000
7025	7019	7016	7015	3	1.046	-1.046	0.000	-0.000	-0.000	0.000
7025	7019	7016	7017	3	9.079	0.000	-9.079	-0.000	-0.000	0.000
7094	7093	7092	7091	3	30.334	0.000	-30.334	-0.000	-0.000	0.000
7093	7101	7102	7090	3	30.334	0.000	-30.334	-0.000	-0.000	0.000
7093	7092	7091	7090	3	30.334	0.000	-30.334	-0.000	-0.000	0.000
7114	7113	7112	7111	3	21.738	2.408	-16.966	-7.180	-0.000	0.000
7110	7109	7108	7107	3	21.738	2.408	-16.966	-7.180	-0.000	0.000
7111	7110	7109	7108	3	21.738	2.408	-16.966	-7.180	-0.000	0.000
7112	7111	7110	7109	3	21.738	2.408	-16.966	-7.180	-0.000	0.000
7113	7112	7111	7110	3	21.738	2.408	-16.966	-7.180	-0.000	0.000
7109	7108	7107	7106	3	58.576	0.000	-58.576	-0.000	-0.000	0.000
7108	7107	7106	7105	3	16.027	-4.391	-14.029	2.393	-0.000	0.000
7107	7106	7105	7104	3	30.334	0.000	-30.334	-0.000	-0.000	0.000
7116	7115	7114	7113	3	58.576	0.000	-58.576	-0.000	-0.000	0.000
7101	7093	7094	7100	3	9.079	0.000	-9.079	-0.000	-0.000	0.000
7100	7094	7093	7092	3	9.079	0.000	-9.079	-0.000	-0.000	0.000
7101	7093	7094	7095	3	9.079	0.000	-9.079	-0.000	-0.000	0.000
7095	7094	7093	7092	3	9.079	0.000	-9.079	-0.000	-0.000	0.000
7100	7094	7095	7096	3	30.334	0.000	-30.334	-0.000	-0.000	0.000
7101	7093	7092	7091	3	30.334	0.000	-30.334	-0.000	-0.000	0.000
7099	7100	7094	7093	3	30.334	0.000	-30.334	-0.000	-0.000	0.000
7102	7101	7093	7094	3	30.334	0.000	-30.334	-0.000	-0.000	0.000
7096	7095	7094	7093	3	30.334	0.000	-30.334	-0.000	-0.000	0.000
7099	7100	7094	7095	3	30.334	0.000	-30.334	-0.000	-0.000	0.000
7102	7101	7093	7092	3	30.334	0.000	-30.334	-0.000	-0.000	0.000
7142	7106	7107	7108	3	16.027	-4.391	-14.029	2.393	-0.000	0.000
7097	7099	7100	7094	3	30.334	0.000	-30.334	-0.000	-0.000	0.000
7097	7096	7095	7094	3	30.334	0.000	-30.334	-0.000	-0.000	0.000
7143	7142	7106	7107	3	30.334	0.000	-30.334	-0.000	-0.000	0.000
7132	7127	7128	7129	3	30.334	0.000	-30.334	-0.000	-0.000	0.000
7143	7142	7106	7105	3	30.334	0.000	-30.334	-0.000	-0.000	0.000
7102	7090	7091	7092	3	30.334	0.000	-30.334	-0.000	-0.000	0.000
7142	7143	7103	7104	3	30.334	0.000	-30.334	-0.000	-0.000	0.000
7132	7131	7130	7129	3	30.334	0.000	-30.334	-0.000	-0.000	0.000
7131	7130	7129	7128	3	30.334	0.000	-30.334	-0.000	-0.000	0.000
7130	7129	7128	7127	3	30.334	0.000	-30.334	-0.000	-0.000	0.000
7106	7105	7104	7103	3	30.334	0.000	-30.334	-0.000	-0.000	0.000
7106	7142	7143	7103	3	30.334	0.000	-30.334	-0.000	-0.000	0.000
7143	7103	7104	7105	3	30.334	0.000	-30.334	-0.000	-0.000	0.000
7142	7106	7105	7104	3	30.334	0.000	-30.334	-0.000	-0.000	0.000
7131	7132	7127	7128	3	30.334	0.000	-30.334	-0.000	-0.000	0.000
7100	7099	7097	7096	3	30.334	0.000	-30.334	-0.000	-0.000	0.000
7101	7102	7090	7091	3	30.334	0.000	-30.334	-0.000	-0.000	0.000
7130	7131	7132	7127	3	30.334	0.000	-30.334	-0.000	-0.000	0.000
7099	7097	7096	7095	3	30.334	0.000	-30.334	-0.000	-0.000	0.000
7131	7132	7127	7126	3	30.334	0.000	-30.334	-0.000	-0.000	0.000
7129	7128	7127	7126	3	30.334	0.000	-30.334	-0.000	-0.000	0.000
7142	7143	7103	7086	3	30.334	0.000	-30.334	-0.000	-0.000	0.000
7105	7104	7103	7086	3	30.334	0.000	-30.334	-0.000	-0.000	0.000
7100	7099	7097	7098	3	0.0	0.0	0.0	-0.0	-0.0	0.0
7092	7091	7090	7089	3	30.334	0.000	-30.334	-0.000	-0.000	0.000
7101	7102	7090	7089	3	30.334	0.000	-30.334	-0.000	-0.000	0.000
7132	7127	7126	7115	3	0.000	0.000	0.000	-0.000	-0.000	0.000
7128	7127	7126	7115	3	0.000	0.000	0.000	-0.000	-0.000	0.000
7132	7127	7126	7125	3	0.000	0.000	0.000	-0.000	-0.000	0.000
7128	7127	7126	7125	3	0.000	0.000	0.000	-0.000	-0.000	0.000
7143	7103	7086	7087	3	5.184	35.932	-14.355	-26.761	-0.000	0.000
7104	7103	7086	7087	3	5.184	35.932	-14.355	-26.761	-0.000	0.000
7104	7103	7086	7085	3	5.184	35.932	-14.355	-26.761	-0.000	0.000
7143	7103	7086	7085	3	5.184	35.932	-14.355	-26.761	-0.000	0.000
7091	7090	7089	7088	3	12.552	0.000	-12.552	-0.000	-0.000	0.000
7102	7090	7089	7088	3	12.552	0.000	-12.552	-0.000	-0.000	0.000
7127	7126	7115	7114	3	6.322	-2.485	0.707	-4.544	-0.000	0.000
7127	7126	7115	7116	3	0.527	-6.397	-1.695	7.565	-0.000	0.000
7127	7126	7125	7119	3	1.715	2.845	1.046	-5.607	-0.000	0.000
7103	7086	7087	7088	3	1.789	3.492	0.536	-5.816	-0.000	0.000
7090	7089	7088	7087	3	1.715	2.845	1.046	-5.607	-0.000	0.000
7133	7126	7127	7128	3	0.000	0.000	0.000	-0.000	-0.000	0.000
7133	7126	7127	7132	3	0.000	0.000	0.000	-0.000	-0.000	0.000
7133	7126	7115	7114	3	6.322	-2.485	0.707	-4.544	-0.000	0.000
7133	7126	7115	7116	3	0.527	-6.397	-1.695	7.565	-0.000	0.000
7133	7126	7125	7119	3	1.715	2.845	1.046	-5.607	-0.000	0.000
7115	7114	7113	7112	3	21.738	2.408	-16.966	-7.180	-0.000	0.000
7120	7119	7116	7115	3	21.738	2.408	-16.966	-7.180	-0.000	0.000
7120	7119	7116	7117	3	-0.778	-2.335	0.000	3.113	-0.000	0.000
7141	7109	7108	7107	3	58.576	0.000	-58.576	-0.000	-0.000	0.000
7137	7111	7110	7109	3	58.576	0.000	-58.576	-0.000	-0.000	0.000
7141	7109	7110	7111	3	58.576	0.000	-58.576	-0.000	-0.000	0.000
7137	7111	7112	7113	3	58.576	0.000	-58.576	-0.000	-0.000	0.000
7126	7115	7114	7113	3	-0.778	-2.335	0.000	3.113	-0.000	0.000
7126	7115	7116	7119	3	58.576	0.000	-58.576	-0.000	-0.000	0.000
7126	7115	7116	7117	3	58.576	0.000	-58.576	-0.000	-0.000	0.000
7138	7141	7109	7108	3	0.527	-6.397	-1.695	7.565	-0.000	0.000
7138	7137	7111	7112	3	0.527	-6.397	-1.695	7.565	-0.000	0.000
7138	7137	7111	7110	3	0.527	-6.397	-1.695	7.565	-0.000	0.000
7138	7141	7109	7110	3	0.527	-6.397	-1.695	7.565	-0.000	0.000
7141	7138	7137	7111	3	2.301	-1.464	0.837	-1.674	-0.000	0.000
7140	7138	7141	7109	3	2.301	-1.464	0.837	-1.674	-0.000	0.000
7137	7138	7141	7109	3	2.301	-1.464	0.837	-1.674	-0.000	0.000
7139	7138	7141	7109	3	2.301	-1.464	0.837	-1.674	-0.000	0.000
7140	7138	7137	7111	3	2.301	-1.464	0.837	-1.674	-0.000	0.000
7139	7138	7137	7111	3	2.301	-1.464	0.837	-1.674	-0.000	0.000
7088	7087	7086	7085	3	1.789	3.492	0.536	-5.816	-0.000	0.000
7126	7125	7119	7116	3	30.334	0.000	-30.334	-0.000	-0.000	0.000
7126	7125	7119	7120	3	30.334	0.000	-30.334	-0.000	-0.000	0.000
7119	7116	7115	7114	3	58.576	0.000	-58.576	-0.000	-0.000	0.000
7119	7125	7126	7115	3	1.715	2.845	1.046	-5.607	-0.000	0.000
7117	7116	7115	7114	3	58.576	0.000	-58.576	-0.000	-0.000	0.000
7121	7120	7119	7116	3	58.576	0.000	-58.576	-0.000	-0.000	0.000
7123	7120	7119	7116	3	58.576	0.000	-58.576	-0.000	-0.000	0.000
7134	7133	7126	7127	3	0.000	0.000	0.000	-0.000	-0.000	0.000
7135	7133	7126	7127	3	0.000	0.000	0.000	-0.000	-0.000	0.000
7136	7133	7126	7127	3	0.000	0.000	0.000	-0.000	-0.000	0.000
7135	7133	7126	7115	3	0.000	0.000	0.000	-0.000	-0.000	0.000
7134	7133	7126	7115	3	0.000	0.000	0.000	-0.000	-0.000	0.000
7136	7133	7126	7115	3	0.000	0.000	0.000	-0.000	-0.000	0.000
7135	7133	7126	7125	3	1.130	3.389	0.000	-4.519	-0.000	0.000
7136	7133	7126	7125	3	1.130	3.389	0.000	-4.519	-0.000	0.000
7134	7133	7126	7125	3	1.130	3.389	0.000	-4.519	-0.000	0.000
7164	7110	7109	7108	3	58.576	0.000	-58.576	-0.000	-0.000	0.000
7164	7110	7111	7112	3	58.576	0.000	-58.576	-0.000	-0.000	0.000
7164	7110	7111	7137	3	58.576	0.000	-58.576	-0.000	-0.000	0.000
7164	7110	7109	7141	3	58.576	0.000	-58.576	-0.000	-0.000	0.000
7153	7095	7094	7093	3	30.334	0.000	-30.334	-0.000	-0.000	0.000
7152	7092	7093	7094	3	30.334	0.000	-30.334	-0.000	-0.000	0.000
7158	7101	7093	7094	3	30.334	0.000	-30.334	-0.000	-0.000	0.000
7157	7100	7094	7093	3	30.334	0.000	-30.334	-0.000	-0.000	0.000
7157	7100	7094	7095	3	30.334	0.000	-30.334	-0.000	-0.000	0.000
7153	7095	7094	7100	3	30.334	0.000	-30.334	-0.000	-0.000	0.000
7152	7092	7093	7101	3	30.334	0.000	-30.334	-0.000	-0.000	0.000
7158	7101	7093	7092	3	30.334	0.000	-30.334	-0.000	-0.000	0.000
7151	7091	7092	7093	3	30.334	0.000	-30.334	-0.000	-0.000	0.000
7159	7102	7101	7093	3	30.334	0.000	-30.334	-0.000	-0.000	0.000
7154	7096	7095	7094	3	30.334	0.000	-30.334	-0.000	-0.000	0.000
7156	7099	7100	7094	3	30.334	0.000	-30.334	-0.000	-0.000	0.000
7161	7105	7106	7107	3	30.334	0.000	-30.334	-0.000	-0.000	0.000
7183	7142	7106	7107	3	30.334	0.000	-30.334	-0.000	-0.000	0.000
7168	7128	7129	7130	3	30.334	0.000	-30.334	-0.000	-0.000	0.000
7156	7099	7097	7096	3	30.334	0.000	-30.334	-0.000	-0.000	0.000
7171	7131	7130	7129	3	30.334	0.000	-30.334	-0.000	-0.000	0.000
7183	7142	7143	7103	3	30.334	0.000	-30.334	-0.000	-0.000	0.000
7169	7129	7128	7127	3	30.334	0.000	-30.334	-0.000	-0.000	0.000
7184	7143	7142	7106	3	30.334	0.000	-30.334	-0.000	-0.000	0.000
7170	7130	7129	7128	3	30.334	0.000	-30.334	-0.000	-0.000	0.000
7159	7102	7090	7091	3	30.334	0.000	-30.334	-0.000	-0.000	0.000
7158	7101	7102	7090	3	30.334	0.000	-30.334	-0.000	-0.000	0.000
7183	7142	7106	7105	3	30.334	0.000	-30.334	-0.000	-0.000	0.000
7184	7143	7103	7104	3	30.334	0.000	-30.334	-0.000	-0.000	0.000
7171	7131	7132	7127	3	30.334	0.000	-30.334	-0.000	-0.000	0.000
7168	7128	7127	7132	3	30.334	0.000	-30.334	-0.000	-0.000	0.000
7153	7095	7096	7097	3	30.334	0.000	-30.334	-0.000	-0.000	0.000
7154	7096	7097	7099	3	30.334	0.000	-30.334	-0.000	-0.000	0.000
7151	7091	7090	7102	3	30.334	0.000	-30.334	-0.000	-0.000	0.000
7160	7104	7103	7143	3	30.334	0.000	-30.334	-0.000	-0.000	0.000
7160	7104	7105	7106	3	30.334	0.000	-30.334	-0.000	-0.000	0.000
7157	7100	7099	7097	3	30.334	0.000	-30.334	-0.000	-0.000	0.000
7161	7105	7106	7142	3	30.334	0.000	-30.334	-0.000	-0.000	0.000
7170	7130	7131	7132	3	30.334	0.000	-30.334	-0.000	-0.000	0.000
7172	7132	7131	7130	3	30.334	0.000	-30.334	-0.000	-0.000	0.000
7169	7129	7130	7131	3	30.334	0.000	-30.334	-0.000	-0.000	0.000
7172	7132	7127	7128	3	30.334	0.000	-30.334	-0.000	-0.000	0.000
7152	7092	7091	7090	3	30.334	0.000	-30.334	-0.000	-0.000	0.000
7161	7105	7104	7103	3	30.334	0.000	-30.334	-0.000	-0.000	0.000
7172	7132	7127	7126	3	30.334	0.000	-30.334	-0.000	-0.000	0.000
7168	7128	7127	7126	3	30.334	0.000	-30.334	-0.000	-0.000	0.000
7161	7105	7104	7160	3	30.334	0.000	-30.334	-0.000	-0.000	0.000
7184	7143	7142	7183	3	30.334	0.000	-30.334	-0.000	-0.000	0.000
7170	7130	7129	7169	3	30.334	0.000	-30.334	-0.000	-0.000	0.000
7154	7096	7095	7153	3	30.334	0.000	-30.334	-0.000	-0.000	0.000
7159	7102	7101	7158	3	30.334	0.000	-30.334	-0.000	-0.000	0.000
7157	7100	7099	7156	3	30.334	0.000	-30.334	-0.000	-0.000	0.000
7169	7129	7128	7168	3	30.334	0.000	-30.334	-0.000	-0.000	0.000
7152	7092	7091	7151	3	30.334	0.000	-30.334	-0.000	-0.000	0.000
7171	7131	7130	7170	3	30.334	0.000	-30.334	-0.000	-0.000	0.000
7172	7132	7131	7171	3	30.334	0.000	-30.334	-0.000	-0.000	0.000
7184	7143	7103	7086	3	30.334	0.000	-30.334	-0.000	-0.000	0.000
7160	7104	7103	7086	3	30.334	0.000	-30.334	-0.000	-0.000	0.000
7154	7096	7097	7098	3	0.0	0.0	0.0	-0.0	-0.0	0.0
7156	7099	7097	7098	3	0.0	0.0	0.0	-0.0	-0.0	0.0
7151	7091	7090	7089	3	30.334	0.000	-30.334	-0.000	-0.000	0.000
7159	7102	7090	7089	3	30.334	0.000	-30.334	-0.000	-0.000	0.000
7165	7112	7111	7110	3	58.576	0.000	-58.576	-0.000	-0.000	0.000
7165	7112	7113	7114	3	58.576	0.000	-58.576	-0.000	-0.000	0.000
7167	7114	7113	7112	3	58.576	0.000	-58.576	-0.000	-0.000	0.000
7166	7113	7112	7111	3	58.576	0.000	-58.576	-0.000	-0.000	0.000
7163	7108	7109	7110	3	58.576	0.000	-58.576	-0.000	-0.000	0.000
7162	7107	7108	7109	3	58.576	0.000	-58.576	-0.000	-0.000	0.000
7163	7108	7107	7106	3	58.576	0.000	-58.576	-0.000	-0.000	0.000
7166	7113	7114	7115	3	58.576	0.000	-58.576	-0.000	-0.000	0.000
7165	7112	7111	7137	3	58.576	0.000	-58.576	-0.000	-0.000	0.000
7163	7108	7109	7141	3	58.576	0.000	-58.576	-0.000	-0.000	0.000
7163	7108	7107	7162	3	58.576	0.000	-58.576	-0.000	-0.000	0.000
7166	7113	7112	7165	3	58.576	0.000	-58.576	-0.000	-0.000	0.000
7167	7114	7113	7166	3	58.576	0.000	-58.576	-0.000	-0.000	0.000
7162	7107	7106	7142	3	-0.778	-2.335	0.000	3.113	-0.000	0.000
7162	7107	7106	7105	3	-0.778	-2.335	0.000	3.113	-0.000	0.000
7167	7114	7115	7116	3	58.576	0.000	-58.576	-0.000	-0.000	0.000
7167	7114	7115	7126	3	58.576	0.000	-58.576	-0.000	-0.000	0.000
7181	7141	7109	7108	3	-0.778	-2.335	0.000	3.113	-0.000	0.000
7181	7141	7109	7110	3	-0.778	-2.335	0.000	3.113	-0.000	0.000
7182	7141	7109	7108	3	-0.778	-2.335	0.000	3.113	-0.000	0.000
7174	7137	7111	7112	3	-0.778	-2.335	0.000	3.113	-0.000	0.000
7182	7141	7109	7110	3	-0.778	-2.335	0.000	3.113	-0.000	0.000
7173	7137	7111	7110	3	-0.778	-2.335	0.000	3.113	-0.000	0.000
7174	7137	7111	7110	3	-0.778	-2.335	0.000	3.113	-0.000	0.000
7173	7137	7111	7112	3	-0.778	-2.335	0.000	3.113	-0.000	0.000
7176	7139	7138	7141	3	0.628	1.883	0.000	-2.510	-0.000	0.000
7175	7139	7138	7140	3	0.628	1.883	0.000	-2.510	-0.000	0.000
7175	7139	7138	7137	3	0.628	1.883	0.000	-2.510	-0.000	0.000
7177	7139	7138	7140	3	0.628	1.883	0.000	-2.510	-0.000	0.000
7179	7140	7138	7137	3	0.628	1.883	0.000	-2.510	-0.000	0.000
7178	7140	7138	7137	3	0.628	1.883	0.000	-2.510	-0.000	0.000
7177	7139	7138	7137	3	0.628	1.883	0.000	-2.510	-0.000	0.000
7179	7140	7138	7139	3	0.628	1.883	0.000	-2.510	-0.000	0.000
7176	7139	7138	7137	3	0.628	1.883	0.000	-2.510	-0.000	0.000
7181	7141	7138	7137	3	0.628	1.883	0.000	-2.510	-0.000	0.000
7181	7141	7138	7139	3	0.628	1.883	0.000	-2.510	-0.000	0.000
7174	7137	7138	7139	3	0.628	1.883	0.000	-2.510	-0.000	0.000
7177	7139	7138	7141	3	0.628	1.883	0.000	-2.510	-0.000	0.000
7174	7137	7138	7140	3	0.628	1.883	0.000	-2.510	-0.000	0.000
7182	7141	7138	7139	3	0.628	1.883	0.000	-2.510	-0.000	0.000
7178	7140	7138	7141	3	0.628	1.883	0.000	-2.510	-0.000	0.000
7179	7140	7138	7141	3	0.628	1.883	0.000	-2.510	-0.000	0.000
7180	7140	7138	7137	3	0.628	1.883	0.000	-2.510	-0.000	0.000
7173	7137	7138	7140	3	0.628	1.883	0.000	-2.510	-0.000	0.000
7173	7137	7138	7139	3	0.628	1.883	0.000	-2.510	-0.000	0.000
7178	7140	7138	7139	3	0.628	1.883	0.000	-2.510	-0.000	0.000
7174	7137	7138	7141	3	0.628	1.883	0.000	-2.510	-0.000	0.000
7182	7141	7138	7140	3	0.628	1.883	0.000	-2.510	-0.000	0.000
7176	7139	7138	7140	3	0.628	1.883	0.000	-2.510	-0.000	0.000
7175	7139	7138	7141	3	0.628	1.883	0.000	-2.510	-0.000	0.000
7182	7141	7138	7137	3	0.628	1.883	0.000	-2.510	-0.000	0.000
7173	7137	7138	7141	3	0.628	1.883	0.000	-2.510	-0.000	0.000
7180	7140	7138	7139	3	0.628	1.883	0.000	-2.510	-0.000	0.000
7181	7141	7138	7140	3	0.628	1.883	0.000	-2.510	-0.000	0.000
7180	7140	7138	7141	3	0.628	1.883	0.000	-2.510	-0.000	0.000
7149	7088	7087	7148	3	0.628	1.883	0.000	-2.510	-0.000	0.000
7150	7088	7087	7147	3	0.628	1.883	0.000	-2.510	-0.000	0.000
7149	7088	7087	7147	3	0.628	1.883	0.000	-2.510	-0.000	0.000
7150	7088	7087	7148	3	0.628	1.883	0.000	-2.510	-0.000	0.000
7150	7088	7087	7086	3	-4.096	5.088	2.966	-3.958	-0.000	0.000
7149	7088	7087	7086	3	-4.096	5.088	2.966	-3.958	-0.000	0.000
7148	7087	7088	7089	3	0.979	2.937	0.000	-3.916	-0.000	0.000
7147	7087	7088	7089	3	0.979	2.937	0.000	-3.916	-0.000	0.000
7148	7087	7086	7103	3	1.172	3.515	0.000	-4.686	-0.000	0.000
7144	7085	7086	7103	3	1.172	3.515	0.000	-4.686	-0.000	0.000
7147	7087	7086	7103	3	1.172	3.515	0.000	-4.686	-0.000	0.000
7145	7085	7086	7103	3	1.172	3.515	0.000	-4.686	-0.000	0.000
7146	7085	7086	7103	3	1.172	3.515	0.000	-4.686	-0.000	0.000
7147	7087	7086	7085	3	1.172	3.515	0.000	-4.686	-0.000	0.000
7145	7085	7086	7087	3	1.172	3.515	0.000	-4.686	-0.000	0.000
7148	7087	7086	7085	3	1.172	3.515	0.000	-4.686	-0.000	0.000
7146	7085	7086	7087	3	1.172	3.515	0.000	-4.686	-0.000	0.000
7144	7085	7086	7087	3	1.172	3.515	0.000	-4.686	-0.000	0.000
7149	7088	7089	7090	3	1.590	4.770	0.000	-6.360	-0.000	0.000
7150	7088	7089	7090	3	1.590	4.770	0.000	-6.360	-0.000	0.000
7155	7098	7097	7099	3	0.0	0.0	0.0	-0.0	-0.0	0.0
7155	7098	7097	7096	3	0.0	0.0	0.0	-0.0	-0.0	0.0
7098	7097	7096	7095	3	0.0	0.0	0.0	-0.0	-0.0	0.0
7125	7126	7115	7114	3	2.874	0.582	2.092	-5.548	-0.000	0.000
7125	7126	7115	7116	3	1.046	-1.046	0.000	-0.000	-0.000	0.000
7089	7088	7087	7086	3	16.736	-16.736	0.000	-0.000	-0.000	0.000
7125	7119	7116	7115	3	1.046	-1.046	0.000	-0.000	-0.000	0.000
7125	7119	7116	7117	3	9.079	0.000	-9.079	-0.000	-0.000	0.000
7194	7193	7192	7191	3	30.334	0.000	-30.334	-0.000	-0.000	0.000
7193	7201	7202	7190	3	30.334	0.000	-30.334	-0.000	-0.000	0.000
7193	7192	7191	7190	3	30.334	0.000	-30.334	-0.000	-0.000	0.000
7214	7213	7212	7211	3	21.738	2.408	-16.966	-7.180	-0.000	0.000
7210	7209	7208	7207	3	21.738	2.408	-16.966	-7.180	-0.000	0.000
7211	7210	7209	7208	3	21.738	2.408	-16.966	-7.180	-0.000	0.000
7212	7211	7210	7209	3	21.738	2.408	-16.966	-7.180	-0.000	0.000
7213	7212	7211	7210	3	21.738	2.408	-16.966	-7.180	-0.000	0.000
7209	7208	7207	7206	3	58.576	0.000	-58.576	-0.000	-0.000	0.000
7208	7207	7206	7205	3	16.027	-4.391	-14.029	2.393	-0.000	0.000
7207	7206	7205	7204	3	30.334	0.000	-30.334	-0.000	-0.000	0.000
7216	7215	7214	7213	3	58.576	0.000	-58.576	-0.000	-0.000	0.000
7201	7193	7194	7200	3	9.079	0.000	-9.079	-0.000	-0.000	0.000
7200	7194	7193	7192	3	9.079	0.000	-9.079	-0.000	-0.000	0.000
7201	7193	7194	7195	3	9.079	0.000	-9.079	-0.000	-0.000	0.000
7195	7194	7193	7192	3	9.079	0.000	-9.079	-0.000	-0.000	0.000
7200	7194	7195	7196	3	30.334	0.000	-30.334	-0.000	-0.000	0.000
7201	7193	7192	7191	3	30.334	0.000	-30.334	-0.000	-0.000	0.000
7199	7200	7194	7193	3	30.334	0.000	-30.334	-0.000	-0.000	0.000
7202	7201	7193	7194	3	30.334	0.000	-30.334	-0.000	-0.000	0.000
7196	7195	7194	7193	3	30.334	0.000	-30.334	-0.000	-0.000	0.000
7199	7200	7194	7195	3	30.334	0.000	-30.334	-0.000	-0.000	0.000
7202	7201	7193	7192	3	30.334	0.000	-30.334	-0.000	-0.000	0.000
7242	7206	7207	7208	3	16.027	-4.391	-14.029	2.393	-0.000	0.000
7197	7199	7200	7194	3	30.334	0.000	-30.334	-0.000	-0.000	0.000
7197	7196	7195	7194	3	30.334	0.000	-30.334	-0.000	-0.000	0.000
7243	7242	7206	7207	3	30.334	0.000	-30.334	-0.000	-0.000	0.000
7232	7227	7228	7229	3	30.334	0.000	-30.334	-0.000	-0.000	0.000
7243	7242	7206	7205	3	30.334	0.000	-30.334	-0.000	-0.000	0.000
7202	7190	7191	7192	3	30.334	0.000	-30.334	-0.000	-0.000	0.000
7242	7243	7203	7204	3	30.334	0.000	-30.334	-0.000	-0.000	0.000
7232	7231	7230	7229	3	30.334	0.000	-30.334	-0.000	-0.000	0.000
7231	7230	7229	7228	3	30.334	0.000	-30.334	-0.000	-0.000	0.000
7230	7229	7228	7227	3	30.334	0.000	-30.334	-0.000	-0.000	0.000
7206	7205	7204	7203	3	30.334	0.000	-30.334	-0.000	-0.000	0.000
7206	7242	7243	7203	3	30.334	0.000	-30.334	-0.000	-0.000	0.000
7243	7203	7204	7205	3	30.334	0.000	-30.334	-0.000	-0.000	0.000
7242	7206	7205	7204	3	30.334	0.000	-30.334	-0.000	-0.000	0.000
7231	7232	7227	7228	3	30.334	0.000	-30.334	-0.000	-0.000	0.000
7200	7199	7197	7196	3	30.334	0.000	-30.334	-0.000	-0.000	0.000
7201	7202	7190	7191	3	30.334	0.000	-30.334	-0.000	-0.000	0.000
7230	7231	7232	7227	3	30.334	0.000	-30.334	-0.000	-0.000	0.000
7199	7197	7196	7195	3	30.334	0.000	-30.334	-0.000	-0.000	0.000
7231	7232	7227	7226	3	30.334	0.000	-30.334	-0.000	-0.000	0.000
7229	7228	7227	7226	3	30.334	0.000	-30.334	-0.000	-0.000	0.000
7242	7243	7203	7186	3	30.334	0.000	-30.334	-0.000	-0.000	0.000
7205	7204	7203	7186	3	30.334	0.000	-30.334	-0.000	-0.000	0.000
7200	7199	7197	7198	3	0.0	0.0	0.0	-0.0	-0.0	0.0
7192	7191	7190	7189	3	30.334	0.000	-30.334	-0.000	-0.000	0.000
7201	7202	7190	7189	3	30.334	0.000	-30.334	-0.000	-0.000	0.000
7232	7227	7226	7215	3	0.000	0.000	0.000	-0.000	-0.000	0.000
7228	7227	7226	7215	3	0.000	0.000	0.000	-0.000	-0.000	0.000
7232	7227	7226	7225	3	0.000	0.000	0.000	-0.000	-0.000	0.000
7228	7227	7226	7225	3	0.000	0.000	0.000	-0.000	-0.000	0.000
7243	7203	7186	7187	3	5.184	35.932	-14.355	-26.761	-0.000	0.000
7204	7203	7186	7187	3	5.184	35.932	-14.355	-26.761	-0.000	0.000
7204	7203	7186	7185	3	5.184	35.932	-14.355	-26.761	-0.000	0.000
7243	7203	7186	7185	3	5.184	35.932	-14.355	-26.761	-0.000	0.000
7191	7190	7189	7188	3	12.552	0.000	-12.552	-0.000	-0.000	0.000
7202	7190	7189	7188	3	12.552	0.000	-12.552	-0.000	-0.000	0.000
7227	7226	7215	7214	3	6.322	-2.485	0.707	-4.544	-0.000	0.000
7227	7226	7215	7216	3	0.527	-6.397	-1.695	7.565	-0.000	0.000
7227	7226	7225	7219	3	1.715	2.845	1.046	-5.607	-0.000	0.000
7203	7186	7187	7188	3	1.789	3.492	0.536	-5.816	-0.000	0.000
7190	7189	7188	7187	3	1.715	2.845	1.046	-5.607	-0.000	0.000
7233	7226	7227	7228	3	0.000	0.000	0.000	-0.000	-0.000	0.000
7233	7226	7227	7232	3	0.000	0.000	0.000	-0.000	-0.000	0.000
7233	7226	7215	7214	3	6.322	-2.485	0.707	-4.544	-0.000	0.000
7233	7226	7215	7216	3	0.527	-6.397	-1.695	7.565	-0.000	0.000
7233	7226	7225	7219	3	1.715	2.845	1.046	-5.607	-0.000	0.000
7215	7214	7213	7212	3	21.738	2.408	-16.966	-7.180	-0.000	0.000
7220	7219	7216	7215	3	21.738	2.408	-16.966	-7.180	-0.000	0.000
7220	7219	7216	7217	3	-0.778	-2.335	0.000	3.113	-0.000	0.000
7241	7209	7208	7207	3	58.576	0.000	-58.576	-0.000	-0.000	0.000
7237	7211	7210	7209	3	58.576	0.000	-58.576	-0.000	-0.000	0.000
7241	7209	7210	7211	3	58.576	0.000	-58.576	-0.000	-0.000	0.000
7237	7211	7212	7213	3	58.576	0.000	-58.576	-0.000	-0.000	0.000
7226	7215	7214	7213	3	-0.778	-2.335	0.000	3.113	-0.000	0.000
7226	7215	7216	7219	3	58.576	0.000	-58.576	-0.000	-0.000	0.000
7226	7215	7216	7217	3	58.576	0.000	-58.576	-0.000	-0.000	0.000
7238	7241	7209	7208	3	0.527	-6.397	-1.695	7.565	-0.000	0.000
7238	7237	7211	7212	3	0.527	-6.397	-1.695	7.565	-0.000	0.000
7238	7237	7211	7210	3	0.527	-6.397	-1.695	7.565	-0.000	0.000
7238	7241	7209	7210	3	0.527	-6.397	-1.695	7.565	-0.000	0.000
7241	7238	7237	7211	3	2.301	-1.464	0.837	-1.674	-0.000	0.000
7240	7238	7241	7209	3	2.301	-1.464	0.837	-1.674	-0.000	0.000
7237	7238	7241	7209	3	2.301	-1.464	0.837	-1.674	-0.000	0.000
7239	7238	7241	7209	3	2.301	-1.464	0.837	-1.674	-0.000	0.000
7240	7238	7237	7211	3	2.301	-1.464	0.837	-1.674	-0.000	0.000
7239	7238	7237	7211	3	2.301	-1.464	0.837	-1.674	-0.000	0.000
7188	7187	7186	7185	3	1.789	3.492	0.536	-5.816	-0.000	0.000
7226	7225	7219	7216	3	30.334	0.000	-30.334	-0.000	-0.000	0.000
7226	7225	7219	7220	3	30.334	0.000	-30.334	-0.000	-0.000	0.000
7219	7216	7215	7214	3	58.576	0.000	-58.576	-0.000	-0.000	0.000
7219	7225	7226	7215	3	1.715	2.845	1.046	-5.607	-0.000	0.000
7217	7216	7215	7214	3	58.576	0.000	-58.576	-0.000	-0.000	0.000
7221	7220	7219	7216	3	58.576	0.000	-58.576	-0.000	-0.000	0.000
7223	7220	7219	7216	3	58.576	0.000	-58.576	-0.000	-0.000	0.000
7234	7233	7226	7227	3	0.000	0.000	0.000	-0.000	-0.000	0.000
7235	7233	7226	7227	3	0.000	0.000	0.000	-0.000	-0.000	0.000
7236	7233	7226	7227	3	0.000	0.000	0.000	-0.000	-0.000	0.000
7235	7233	7226	7215	3	0.000	0.000	0.000	-0.000	-0.000	0.000
7234	7233	7226	7215	3	0.000	0.000	0.000	-0.000	-0.000	0.000
7236	7233	7226	7215	3	0.000	0.000	0.000	-0.000	-0.000	0.000
7235	7233	7226	7225	3	1.130	3.389	0.000	-4.519	-0.000	0.000
7236	7233	7226	7225	3	1.130	3.389	0.000	-4.519	-0.000	0.000
7234	7233	7226	7225	3	1.130	3.389	0.000	-4.519	-0.000	0.000
7264	7210	7209	7208	3	58.576	0.000	-58.576	-0.000	-0.000	0.000
7264	7210	7211	7212	3	58.576	0.000	-58.576	-0.000	-0.000	0.000
7264	7210	7211	7237	3	58.576	0.000	-58.576	-0.000	-0.000	0.000
7264	7210	7209	7241	3	58.576	0.000	-58.576	-0.000	-0.000	0.000
7253	7195	7194	7193	3	30.334	0.000	-30.334	-0.000	-0.000	0.000
7252	7192	7193	7194	3	30.334	0.000	-30.334	-0.000	-0.000	0.000
7258	7201	7193	7194	3	30.334	0.000	-30.334	-0.000	-0.000	0.000
7257	7200	7194	7193	3	30.334	0.000	-30.334	-0.000	-0.000	0.000
7257	7200	7194	7195	3	30.334	0.000	-30.334	-0.000	-0.000	0.000
7253	7195	7194	7200	3	30.334	0.000	-30.334	-0.000	-0.000	0.000
7252	7192	7193	7201	3	30.334	0.000	-30.334	-0.000	-0.000	0.000
7258	7201	7193	7192	3	30.334	0.000	-30.334	-0.000	-0.000	0.000
7251	7191	7192	7193	3	30.334	0.000	-30.334	-0.000	-0.000	0.000
7259	7202	7201	7193	3	30.334	0.000	-30.334	-0.000	-0.000	0.000
7254	7196	7195	7194	3	30.334	0.000	-30.334	-0.000	-0.000	0.000
7256	7199	7200	7194	3	30.334	0.000	-30.334	-0.000	-0.000	0.000
7261	7205	7206	7207	3	30.334	0.000	-30.334	-0.000	-0.000	0.000
7283	7242	7206	7207	3	30.334	0.000	-30.334	-0.000	-0.000	0.000
7268	7228	7229	7230	3	30.334	0.000	-30.334	-0.000	-0.000	0.000
7256	7199	7197	7196	3	30.334	0.000	-30.334	-0.000	-0.000	0.000
7271	7231	7230	7229	3	30.334	0.000	-30.334	-0.000	-0.000	0.000
7283	7242	7243	7203	3	30.334	0.000	-30.334	-0.000	-0.000	0.000
7269	7229	7228	7227	3	30.334	0.000	-30.334	-0.000	-0.000	0.000
7284	7243	7242	7206	3	30.334	0.000	-30.334	-0.000	-0.000	0.000
7270	7230	7229	7228	3	30.334	0.000	-30.334	-0.000	-0.000	0.000
7259	7202	7190	7191	3	30.334	0.000	-30.334	-0.000	-0.000	0.000
7258	7201	7202	7190	3	30.334	0.000	-30.334	-0.000	-0.000	0.000
7283	7242	7206	7205	3	30.334	0.000	-30.334	-0.000	-0.000	0.000
7284	7243	7203	7204	3	30.334	0.000	-30.334	-0.000	-0.000	0.000
7271	7231	7232	7227	3	30.334	0.000	-30.334	-0.000	-0.000	0.000
7268	7228	7227	7232	3	30.334	0.000	-30.334	-0.000	-0.000	0.000
7253	7195	7196	7197	3	30.334	0.000	-30.334	-0.000	-0.000	0.000
7254	7196	7197	7199	3	30.334	0.000	-30.334	-0.000	-0.000	0.000
7251	7191	7190	7202	3	30.334	0.000	-30.334	-0.000	-0.000	0.000
7260	7204	7203	7243	3	30.334	0.000	-30.334	-0.000	-0.000	0.000
7260	7204	7205	7206	3	30.334	0.000	-30.334	-0.000	-0.000	0.000
7257	7200	7199	7197	3	30.334	0.000	-30.334	-0.000	-0.000	0.000
7261	7205	7206	7242	3	30.334	0.000	-30.334	-0.000	-0.000	0.000
7270	7230	7231	7232	3	30.334	0.000	-30.334	-0.000	-0.000	0.000
7272	7232	7231	7230	3	30.334	0.000	-30.334	-0.000	-0.000	0.000
7269	7229	7230	7231	3	30.334	0.000	-30.334	-0.000	-0.000	0.000
7272	7232	7227	7228	3	30.334	0.000	-30.334	-0.000	-0.000	0.000
7252	7192	7191	7190	3	30.334	0.000	-30.334	-0.000	-0.000	0.000
7261	7205	7204	7203	3	30.334	0.000	-30.334	-0.000	-0.000	0.000
7272	7232	7227	7226	3	30.334	0.000	-30.334	-0.000	-0.000	0.000
7268	7228	7227	7226	3	30.334	0.000	-30.334	-0.000	-0.000	0.000
7261	7205	7204	7260	3	30.334	0.000	-30.334	-0.000	-0.000	0.000
7284	7243	7242	7283	3	30.334	0.000	-30.334	-0.000	-0.000	0.000
7270	7230	7229	7269	3	30.334	0.000	-30.334	-0.000	-0.000	0.000
7254	7196	7195	7253	3	30.334	0.000	-30.334	-0.000	-0.000	0.000
7259	7202	7201	7258	3	30.334	0.000	-30.334	-0.000	-0.000	0.000
7257	7200	7199	7256	3	30.334	0.000	-30.334	-0.000	-0.000	0.000
7269	7229	7228	7268	3	30.334	0.000	-30.334	-0.000	-0.000	0.000
7252	7192	7191	7251	3	30.334	0.000	-30.334	-0.000	-0.000	0.000
7271	7231	7230	7270	3	30.334	0.000	-30.334	-0.000	-0.000	0.000
7272	7232	7231	7271	3	30.334	0.000	-30.334	-0.000	-0.000	0.000
7284	7243	7203	7186	3	30.334	0.000	-30.334	-0.000	-0.000	0.000
7260	7204	7203	7186	3	30.334	0.000	-30.334	-0.000	-0.000	0.000
7254	7196	7197	7198	3	0.0	0.0	0.0	-0.0	-0.0	0.0
7256	7199	7197	7198	3	0.0	0.0	0.0	-0.0	-0.0	0.0
7251	7191	7190	7189	3	30.334	0.000	-30.334	-0.000	-0.000	0.000
7259	7202	7190	7189	3	30.334	0.000	-30.334	-0.000	-0.000	0.000
7265	7212	7211	7210	3	58.576	0.000	-58.576	-0.000	-0.000	0.000
7265	7212	7213	7214	3	58.576	0.000	-58.576	-0.000	-0.000	0.000
7267	7214	7213	7212	3	58.576	0.000	-58.576	-0.000	-0.000	0.000
7266	7213	7212	7211	3	58.576	0.000	-58.576	-0.000	-0.000	0.000
7263	7208	7209	7210	3	58.576	0.000	-58.576	-0.000	-0.000	0.000
7262	7207	7208	7209	3	58.576	0.000	-58.576	-0.000	-0.000	0.000
7263	7208	7207	7206	3	58.576	0.000	-58.576	-0.000	-0.000	0.000
7266	7213	7214	7215	3	58.576	0.000	-58.576	-0.000	-0.000	0.000
7265	7212	7211	7237	3	58.576	0.000	-58.576	-0.000	-0.000	0.000
7263	7208	7209	7241	3	58.576	0.000	-58.576	-0.000	-0.000	0.000
7263	7208	7207	7262	3	58.576	0.000	-58.576	-0.000	-0.000	0.000
7266	7213	7212	7265	3	58.576	0.000	-58.576	-0.000	-0.000	0.000
7267	7214	7213	7266	3	58.576	0.000	-58.576	-0.000	-0.000	0.000
7262	7207	7206	7242	3	-0.778	-2.335	0.000	3.113	-0.000	0.000
7262	7207	7206	7205	3	-0.778	-2.335	0.000	3.113	-0.000	0.000
7267	7214	7215	7216	3	58.576	0.000	-58.576	-0.000	-0.000	0.000
7267	7214	7215	7226	3	58.576	0.000	-58.576	-0.000	-0.000	0.000
7281	7241	7209	7208	3	-0.778	-2.335	0.000	3.113	-0.000	0.000
7281	7241	7209	7210	3	-0.778	-2.335	0.000	3.113	-0.000	0.000
7282	7241	7209	7208	3	-0.778	-2.335	0.000	3.113	-0.000	0.000
7274	7237	7211	7212	3	-0.778	-2.335	0.000	3.113	-0.000	0.000
7282	7241	7209	7210	3	-0.778	-2.335	0.000	3.113	-0.000	0.000
7273	7237	7211	7210	3	-0.778	-2.335	0.000	3.113	-0.000	0.000
7274	7237	7211	7210	3	-0.778	-2.335	0.000	3.113	-0.000	0.000
7273	7237	7211	7212	3	-0.778	-2.335	0.000	3.113	-0.000	0.000
7276	7239	7238	7241	3	0.628	1.883	0.000	-2.510	-0.000	0.000
7275	7239	7238	7240	3	0.628	1.883	0.000	-2.510	-0.000	0.000
7275	7239	7238	7237	3	0.628	1.883	0.000	-2.510	-0.000	0.000
7277	7239	7238	7240	3	0.628	1.883	0.000	-2.510	-0.000	0.000
7279	7240	7238	7237	3	0.628	1.883	0.000	-2.510	-0.000	0.000
7278	7240	7238	7237	3	0.628	1.883	0.000	-2.510	-0.000	0.000
7277	7239	7238	7237	3	0.628	1.883	0.000	-2.510	-0.000	0.000
7279	7240	7238	7239	3	0.628	1.883	0.000	-2.510	-0.000	0.000
7276	7239	7238	7237	3	0.628	1.883	0.000	-2.510	-0.000	0.000
7281	7241	7238	7237	3	0.628	1.883	0.000	-2.510	-0.000	0.000
7281	7241	7238	7239	3	0.628	1.883	0.000	-2.510	-0.000	0.000
7274	7237	7238	7239	3	0.628	1.883	0.000	-2.510	-0.000	0.000
7277	7239	7238	7241	3	0.628	1.883	0.000	-2.510	-0.000	0.000
7274	7237	7238	7240	3	0.628	1.883	0.000	-2.510	-0.000	0.000
7282	7241	7238	7239	3	0.628	1.883	0.000	-2.510	-0.000	0.000
7278	7240	7238	7241	3	0.628	1.883	0.000	-2.510	-0.000	0.000
7279	7240	7238	7241	3	0.628	1.883	0.000	-2.510	-0.000	0.000
7280	7240	7238	7237	3	0.628	1.883	0.000	-2.510	-0.000	0.000
7273	7237	7238	7240	3	0.628	1.883	0.000	-2.510	-0.000	0.000
7273	7237	7238	7239	3	0.628	1.883	0.000	-2.510	-0.000	0.000
7278	7240	7238	7239	3	0.628	1.883	0.000	-2.510	-0.000	0.000
7274	7237	7238	7241	3	0.628	1.883	0.000	-2.510	-0.000	0.000
7282	7241	7238	7240	3	0.628	1.883	0.000	-2.510	-0.000	0.000
7276	7239	7238	7240	3	0.628	1.883	0.000	-2.510	-0.000	0.000
7275	7239	7238	7241	3	0.628	1.883	0.000	-2.510	-0.000	0.000
7282	7241	7238	7237	3	0.628	1.883	0.000	-2.510	-0.000	0.000
7273	7237	7238	7241	3	0.628	1.883	0.000	-2.510	-0.000	0.000
7280	7240	7238	7239	3	0.628	1.883	0.000	-2.510	-0.000	0.000
7281	7241	7238	7240	3	0.628	1.883	0.000	-2.510	-0.000	0.000
7280	7240	7238	7241	3	0.628	1.883	0.000	-2.510	-0.000	0.000
7249	7188	7187	7248	3	0.628	1.883	0.000	-2.510	-0.000	0.000
7250	7188	7187	7247	3	0.628	1.883	0.000	-2.510	-0.000	0.000
7249	7188	7187	7247	3	0.628	1.883	0.000	-2.510	-0.000	0.000
7250	7188	7187	7248	3	0.628	1.883	0.000	-2.510	-0.000	0.000
7250	7188	7187	7186	3	-4.096	5.088	2.966	-3.958	-0.000	0.000
7249	7188	7187	7186	3	-4.096	5.088	2.966	-3.958	-0.000	0.000
7248	7187	7188	7189	3	0.979	2.937	0.000	-3.916	-0.000	0.000
7247	7187	7188	7189	3	0.979	2.937	0.000	-3.916	-0.000	0.000
7248	7187	7186	7203	3	1.172	3.515	0.000	-4.686	-0.000	0.000
7244	7185	7186	7203	3	1.172	3.515	0.000	-4.686	-0.000	0.000
7247	7187	7186	7203	3	1.172	3.515	0.000	-4.686	-0.000	0.000
7245	7185	7186	7203	3	1.172	3.515	0.000	-4.686	-0.000	0.000
7246	7185	7186	7203	3	1.172	3.515	0.000	-4.686	-0.000	0.000
7247	7187	7186	7185	3	1.172	3.515	0.000	-4.686	-0.000	0.000
7245	7185	7186	7187	3	1.172	3.515	0.000	-4.686	-0.000	0.000
7248	7187	7186	7185	3	1.172	3.515	0.000	-4.686	-0.000	0.000
7246	7185	7186	7187	3	1.172	3.515	0.000	-4.686	-0.000	0.000
7244	7185	7186	7187	3	1.172	3.515	0.000	-4.686	-0.000	0.000
7249	7188	7189	7190	3	1.590	4.770	0.000	-6.360	-0.000	0.000
7250	7188	7189	7190	3	1.590	4.770	0.000	-6.360	-0.000	0.000
7255	7198	7197	7199	3	0.0	0.0	0.0	-0.0	-0.0	0.0
7255	7198	7197	7196	3	0.0	0.0	0.0	-0.0	-0.0	0.0
7198	7197	7196	7195	3	0.0	0.0	0.0	-0.0	-0.0	0.0
7225	7226	7215	7214	3	2.874	0.582	2.092	-5.548	-0.000	0.000
7225	7226	7215	7216	3	1.046	-1.046	0.000	-0.000	-0.000	0.000
7189	7188	7187	7186	3	16.736	-16.736	0.000	-0.000	-0.000	0.000
7225	7219	7216	7215	3	1.046	-1.046	0.000	-0.000	-0.000	0.000
7225	7219	7216	7217	3	9.079	0.000	-9.079	-0.000	-0.000	0.000
7294	7293	7292	7291	3	30.334	0.000	-30.334	-0.000	-0.000	0.000
7293	7301	7302	7290	3	30.334	0.000	-30.334	-0.000	-0.000	0.000
7293	7292	7291	7290	3	30.334	0.000	-30.334	-0.000	-0.000	0.000
7314	7313	7312	7311	3	21.738	2.408	-16.966	-7.180	-0.000	0.000
7310	7309	7308	7307	3	21.738	2.408	-16.966	-7.180	-0.000	0.000
7311	7310	7309	7308	3	21.738	2.408	-16.966	-7.180	-0.000	0.000
7312	7311	7310	7309	3	21.738	2.408	-16.966	-7.180	-0.000	0.000
7313	7312	7311	7310	3	21.738	2.408	-16.966	-7.180	-0.000	0.000
7309	7308	7307	7306	3	58.576	0.000	-58.576	-0.000	-0.000	0.000
7308	7307	7306	7305	3	16.027	-4.391	-14.029	2.393	-0.000	0.000
7307	7306	7305	7304	3	30.334	0.000	-30.334	-0.000	-0.000	0.000
7316	7315	7314	7313	3	58.576	0.000	-58.576	-0.000	-0.000	0.000
7301	7293	7294	7300	3	9.079	0.000	-9.079	-0.000	-0.000	0.000
7300	7294	7293	7292	3	9.079	0.000	-9.079	-0.000	-0.000	0.000
7301	7293	7294	7295	3	9.079	0.000	-9.079	-0.000	-0.000	0.000
7295	7294	7293	7292	3	9.079	0.000	-9.079	-0.000	-0.000	0.000
7300	7294	7295	7296	3	30.334	0.000	-30.334	-0.000	-0.000	0.000
7301	7293	7292	7291	3	30.334	0.000	-30.334	-0.000	-0.000	0.000
7299	7300	7294	7293	3	30.334	0.000	-30.334	-0.000	-0.000	0.000
7302	7301	7293	7294	3	30.334	0.000	-30.334	-0.000	-0.000	0.000
7296	7295	7294	7293	3	30.334	0.000	-30.334	-0.000	-0.000	0.000
7299	7300	7294	7295	3	30.334	0.000	-30.334	-0.000	-0.000	0.000
7302	7301	7293	7292	3	30.334	0.000	-30.334	-0.000	-0.000	0.000
7342	7306	7307	7308	3	16.027	-4.391	-14.029	2.393	-0.000	0.000
7297	7299	7300	7294	3	30.334	0.000	-30.334	-0.000	-0.000	0.000
7297	7296	7295	7294	3	30.334	0.000	-30.334	-0.000	-0.000	0.000
7343	7342	7306	7307	3	30.334	0.000	-30.334	-0.000	-0.000	0.000
7332	7327	7328	7329	3	30.334	0.000	-30.334	-0.000	-0.000	0.000
7343	7342	7306	7305	3	30.334	0.000	-30.334	-0.000	-0.000	0.000
7302	7290	7291	7292	3	30.334	0.000	-30.334	-0.000	-0.000	0.000
7342	7343	7303	7304	3	30.334	0.000	-30.334	-0.000	-0.000	0.000
7332	7331	7330	7329	3	30.334	0.000	-30.334	-0.000	-0.000	0.000
7331	7330	7329	7328	3	30.334	0.000	-30.334	-0.000	-0.000	0.000
7330	7329	7328	7327	3	30.334	0.000	-30.334	-0.000	-0.000	0.000
7306	7305	7304	7303	3	30.334	0.000	-30.334	-0.000	-0.000	0.000
7306	7342	7343	7303	3	30.334	0.000	-30.334	-0.000	-0.000	0.000
7343	7303	7304	7305	3	30.334	0.000	-30.334	-0.000	-0.000	0.000
7342	7306	7305	7304	3	30.334	0.000	-30.334	-0.000	-0.000	0.000
7331	7332	7327	7328	3	30.334	0.000	-30.334	-0.000	-0.000	0.000
7300	7299	7297	7296	3	30.334	0.000	-30.334	-0.000	-0.000	0.000
7301	7302	7290	7291	3	30.334	0.000	-30.334	-0.000	-0.000	0.000
7330	7331	7332	7327	3	30.334	0.000	-30.334	-0.000	-0.000	0.000
7299	7297	7296	7295	3	30.334	0.000	-30.334	-0.000	-0.000	0.000
7331	7332	7327	7326	3	30.334	0.000	-30.334	-0.000	-0.000	0.000
7329	7328	7327	7326	3	30.334	0.000	-30.334	-0.000	-0.000	0.000
7342	7343	7303	7286	3	30.334	0.000	-30.334	-0.000	-0.000	0.000
7305	7304	7303	7286	3	30.334	0.000	-30.334	-0.000	-0.000	0.000
7300	7299	7297	7298	3	0.0	0.0	0.0	-0.0	-0.0	0.0
7292	7291	7290	7289	3	30.334	0.000	-30.334	-0.000	-0.000	0.000
7301	7302	7290	7289	3	30.334	0.000	-30.334	-0.000	-0.000	0.000
7332	7327	7326	7315	3	0.000	0.000	0.000	-0.000	-0.000	0.000
7328	7327	7326	7315	3	0.000	0.000	0.000	-0.000	-0.000	0.000
7332	7327	7326	7325	3	0.000	0.000	0.000	-0.000	-0.000	0.000
7328	7327	7326	7325	3	0.000	0.000	0.000	-0.000	-0.000	0.000
7343	7303	7286	7287	3	5.184	35.932	-14.355	-26.761	-0.000	0.000
7304	7303	7286	7287	3	5.184	35.932	-14.355	-26.761	-0.000	0.000
7304	7303	7286	7285	3	5.184	35.932	-14.355	-26.761	-0.000	0.000
7343	7303	7286	7285	3	5.184	35.932	-14.355	-26.761	-0.000	0.000
7291	7290	7289	7288	3	12.552	0.000	-12.552	-0.000	-0.000	0.000
7302	7290	7289	7288	3	12.552	0.000	-12.552	-0.000	-0.000	0.000
7327	7326	7315	7314	3	6.322	-2.485	0.707	-4.544	-0.000	0.000
7327	7326	7315	7316	3	0.527	-6.397	-1.695	7.565	-0.000	0.000
7327	7326	7325	7319	3	1.715	2.845	1.046	-5.607	-0.000	0.000
7303	7286	7287	7288	3	1.789	3.492	0.536	-5.816	-0.000	0.000
7290	7289	7288	7287	3	1.715	2.845	1.046	-5.607	-0.000	0.000
7333	7326	7327	7328	3	0.000	0.000	0.000	-0.000	-0.000	0.000
7333	7326	7327	7332	3	0.000	0.000	0.000	-0.000	-0.000	0.000
7333	7326	7315	7314	3	6.322	-2.485	0.707	-4.544	-0.000	0.000
7333	7326	7315	7316	3	0.527	-6.397	-1.695	7.565	-0.000	0.000
7333	7326	7325	7319	3	1.715	2.845	1.046	-5.607	-0.000	0.000
7315	7314	7313	7312	3	21.738	2.408	-16.966	-7.180	-0.000	0.000
7320	7319	7316	7315	3	21.738	2.408	-16.966	-7.180	-0.000	0.000
7320	7319	7316	7317	3	-0.778	-2.335	0.000	3.113	-0.000	0.000
7341	7309	7308	7307	3	58.576	0.000	-58.576	-0.000	-0.000	0.000
7337	7311	7310	7309	3	58.576	0.000	-58.576	-0.000	-0.000	0.000
7341	7309	7310	7311	3	58.576	0.000	-58.576	-0.000	-0.000	0.000
7337	7311	7312	7313	3	58.576	0.000	-58.576	-0.000	-0.000	0.000
7326	7315	7314	7313	3	-0.778	-2.335	0.000	3.113	-0.000	0.000
7326	7315	7316	7319	3	58.576	0.000	-58.576	-0.000	-0.000	0.000
7326	7315	7316	7317	3	58.576	0.000	-58.576	-0.000	-0.000	0.000
7338	7341	7309	7308	3	0.527	-6.397	-1.695	7.565	-0.000	0.000
7338	7337	7311	7312	3	0.527	-6.397	-1.695	7.565	-0.000	0.000
7338	7337	7311	7310	3	0.527	-6.397	-1.695	7.565	-0.000	0.000
7338	7341	7309	7310	3	0.527	-6.397	-1.695	7.565	-0.000	0.000
7341	7338	7337	7311	3	2.301	-1.464	0.837	-1.674	-0.000	0.000
7340	7338	7341	7309	3	2.301	-1.464	0.837	-1.674	-0.000	0.000
7337	7338	7341	7309	3	2.301	-1.464	0.837	-1.674	-0.000	0.000
7339	7338	7341	7309	3	2.301	-1.464	0.837	-1.674	-0.000	0.000
7340	7338	7337	7311	3	2.301	-1.464	0.837	-1.674	-0.000	0.000
7339	7338	7337	7311	3	2.301	-1.464	0.837	-1.674	-0.000	0.000
7288	7287	7286	7285	3	1.789	3.492	0.536	-5.816	-0.000	0.000
7326	7325	7319	7316	3	30.334	0.000	-30.334	-0.000	-0.000	0.000
7326	7325	7319	7320	3	30.334	0.000	-30.334	-0.000	-0.000	0.000
7319	7316	7315	7314	3	58.576	0.000	-58.576	-0.000	-0.000	0.000
7319	7325	7326	7315	3	1.715	2.845	1.046	-5.607	-0.000	0.000
7317	7316	7315	7314	3	58.576	0.000	-58.576	-0.000	-0.000	0.000
7321	7320	7319	7316	3	58.576	0.000	-58.576	-0.000	-0.000	0.000
7323	7320	7319	7316	3	58.576	0.000	-58.576	-0.000	-0.000	0.000
7334	7333	7326	7327	3	0.000	0.000	0.000	-0.000	-0.000	0.000
7335	7333	7326	7327	3	0.000	0.000	0.000	-0.000	-0.000	0.000
7336	7333	7326	7327	3	0.000	0.000	0.000	-0.000	-0.000	0.000
7335	7333	7326	7315	3	0.000	0.000	0.000	-0.000	-0.000	0.000
7334	7333	7326	7315	3	0.000	0.000	0.000	-0.000	-0.000	0.000
7336	7333	7326	7315	3	0.000	0.000	0.000	-0.000	-0.000	0.000
7335	7333	7326	7325	3	1.130	3.389	0.000	-4.519	-0.000	0.000
7336	7333	7326	7325	3	1.130	3.389	0.000	-4.519	-0.000	0.000
7334	7333	7326	7325	3	1.130	3.389	0.000	-4.519	-0.000	0.000
7364	7310	7309	7308	3	58.576	0.000	-58.576	-0.000	-0.000	0.000
7364	7310	7311	7312	3	58.576	0.000	-58.576	-0.000	-0.000	0.000
7364	7310	7311	7337	3	58.576	0.000	-58.576	-0.000	-0.000	0.000
7364	7310	7309	7341	3	58.576	0.000	-58.576	-0.000	-0.000	0.000
7353	7295	7294	7293	3	30.334	0.000	-30.334	-0.000	-0.000	0.000
7352	7292	7293	7294	3	30.334	0.000	-30.334	-0.000	-0.000	0.000
7358	7301	7293	7294	3	30.334	0.000	-30.334	-0.000	-0.000	0.000
7357	7300	7294	7293	3	30.334	0.000	-30.334	-0.000	-0.000	0.000
7357	7300	7294	7295	3	30.334	0.000	-30.334	-0.000	-0.000	0.000
7353	7295	7294	7300	3	30.334	0.000	-30.334	-0.000	-0.000	0.000
7352	7292	7293	7301	3	30.334	0.000	-30.334	-0.000	-0.000	0.000
7358	7301	7293	7292	3	30.334	0.000	-30.334	-0.000	-0.000	0.000
7351	7291	7292	7293	3	30.334	0.000	-30.334	-0.000	-0.000	0.000
7359	7302	7301	7293	3	30.334	0.000	-30.334	-0.000	-0.000	0.000
7354	7296	7295	7294	3	30.334	0.000	-30.334	-0.000	-0.000	0.000
7356	7299	7300	7294	3	30.334	0.000	-30.334	-0.000	-0.000	0.000
7361	7305	7306	7307	3	30.334	0.000	-30.334	-0.000	-0.000	0.000
7383	7342	7306	7307	3	30.334	0.000	-30.334	-0.000	-0.000	0.000
7368	7328	7329	7330	3	30.334	0.000	-30.334	-0.000	-0.000	0.000
7356	7299	7297	7296	3	30.334	0.000	-30.334	-0.000	-0.000	0.000
7371	7331	7330	7329	3	30.334	0.000	-30.334	-0.000	-0.000	0.000
7383	7342	7343	7303	3	30.334	0.000	-30.334	-0.000	-0.000	0.000
7369	7329	7328	7327	3	30.334	0.000	-30.334	-0.000	-0.000	0.000
7384	7343	7342	7306	3	30.334	0.000	-30.334	-0.000	-0.000	0.000
7370	7330	7329	7328	3	30.334	0.000	-30.334	-0.000	-0.000	0.000
7359	7302	7290	7291	3	30.334	0.000	-30.334	-0.000	-0.000	0.000
7358	7301	7302	7290	3	30.334	0.000	-30.334	-0.000	-0.000	0.000
7383	7342	7306	7305	3	30.334	0.000	-30.334	-0.000	-0.000	0.000
7384	7343	7303	7304	3	30.334	0.000	-30.334	-0.000	-0.000	0.000
7371	7331	7332	7327	3	30.334	0.000	-30.334	-0.000	-0.000	0.000
7368	7328	7327	7332	3	30.334	0.000	-30.334	-0.000	-0.000	0.000
7353	7295	7296	7297	3	30.334	0.000	-30.334	-0.000	-0.000	0.000
7354	7296	7297	7299	3	30.334	0.000	-30.334	-0.000	-0.000	0.000
7351	7291	7290	7302	3	30.334	0.000	-30.334	-0.000	-0.000	0.000
7360	7304	7303	7343	3	30.334	0.000	-30.334	-0.000	-0.000	0.000
7360	7304	7305	7306	3	30.334	0.000	-30.334	-0.000	-0.000	0.000
7357	7300	7299	7297	3	30.334	0.000	-30.334	-0.000	-0.000	0.000
7361	7305	7306	7342	3	30.334	0.000	-30.334	-0.000	-0.000	0.000
7370	7330	7331	7332	3	30.334	0.000	-30.334	-0.000	-0.000	0.000
7372	7332	7331	7330	3	30.334	0.000	-30.334	-0.000	-0.000	0.000
7369	7329	7330	7331	3	30.334	0.000	-30.334	-0.000	-0.000	0.000
7372	7332	7327	7328	3	30.334	0.000	-30.334	-0.000	-0.000	0.000
7352	7292	7291	7290	3	30.334	0.000	-30.334	-0.000	-0.000	0.000
7361	7305	7304	7303	3	30.334	0.000	-30.334	-0.000	-0.000	0.000
7372	7332	7327	7326	3	30.334	0.000	-30.334	-0.000	-0.000	0.000
7368	7328	7327	7326	3	30.334	0.000	-30.334	-0.000	-0.000	0.000
7361	7305	7304	7360	3	30.334	0.000	-30.334	-0.000	-0.000	0.000
7384	7343	7342	7383	3	30.334	0.000	-30.334	-0.000	-0.000	0.000
7370	7330	7329	7369	3	30.334	0.000	-30.334	-0.000	-0.000	0.000
7354	7296	7295	7353	3	30.334	0.000	-30.334	-0.000	-0.000	0.000
7359	7302	7301	7358	3	30.334	0.000	-30.334	-0.000	-0.000	0.000
7357	7300	7299	7356	3	30.334	0.000	-30.334	-0.000	-0.000	0.000
7369	7329	7328	7368	3	30.334	0.000	-30.334	-0.000	-0.000	0.000
7352	7292	7291	7351	3	30.334	0.000	-30.334	-0.000	-0.000	0.000
7371	7331	7330	7370	3	30.334	0.000	-30.334	-0.000	-0.000	0.000
7372	7332	7331	7371	3	30.334	0.000	-30.334	-0.000	-0.000	0.000
7384	7343	7303	7286	3	30.334	0.000	-30.334	-0.000	-0.000	0.000
7360	7304	7303	7286	3	30.334	0.000	-30.334	-0.000	-0.000	0.000
7354	7296	7297	7298	3	0.0	0.0	0.0	-0.0	-0.0	0.0
7356	7299	7297	7298	3	0.0	0.0	0.0	-0.0	-0.0	0.0
7351	7291	7290	7289	3	30.334	0.000	-30.334	-0.000	-0.000	0.000
7359	7302	7290	7289	3	30.334	0.000	-30.334	-0.000	-0.000	0.000
7365	7312	7311	7310	3	58.576	0.000	-58.576	-0.000	-0.000	0.000
7365	7312	7313	7314	3	58.576	0.000	-58.576	-0.000	-0.000	0.000
7367	7314	7313	7312	3	58.576	0.000	-58.576	-0.000	-0.000	0.000
7366	7313	7312	7311	3	58.576	0.000	-58.576	-0.000	-0.000	0.000
7363	7308	7309	7310	3	58.576	0.000	-58.576	-0.000	-0.000	0.000
7362	7307	7308	7309	3	58.576	0.000	-58.576	-0.000	-0.000	0.000
7363	7308	7307	7306	3	58.576	0.000	-58.576	-0.000	-0.000	0.000
7366	7313	7314	7315	3	58.576	0.000	-58.576	-0.000	-0.000	0.000
7365	7312	7311	7337	3	58.576	0.000	-58.576	-0.000	-0.000	0.000
7363	7308	7309	7341	3	58.576	0.000	-58.576	-0.000	-0.000	0.000
7363	7308	7307	7362	3	58.576	0.000	-58.576	-0.000	-0.000	0.000
7366	7313	7312	7365	3	58.576	0.000	-58.576	-0.000	-0.000	0.000
7367	7314	7313	7366	3	58.576	0.000	-58.576	-0.000	-0.000	0.000
7362	7307	7306	7342	3	-0.778	-2.335	0.000	3.113	-0.000	0.000
7362	7307	7306	7305	3	-0.778	-2.335	0.000	3.113	-0.000	0.000
7367	7314	7315	7316	3	58.576	0.000	-58.576	-0.000	-0.000	0.000
7367	7314	7315	7326	3	58.576	0.000	-58.576	-0.000	-0.000	0.000
7381	7341	7309	7308	3	-0.778	-2.335	0.000	3.113	-0.000	0.000
7381	7341	7309	7310	3	-0.778	-2.335	0.000	3.113	-0.000	0.000
7382	7341	7309	7308	3	-0.778	-2.335	0.000	3.113	-0.000	0.000
7374	7337	7311	7312	3	-0.778	-2.335	0.000	3.113	-0.000	0.000
7382	7341	7309	7310	3	-0.778	-2.335	0.000	3.113	-0.000	0.000
7373	7337	7311	7310	3	-0.778	-2.335	0.000	3.113	-0.000	0.000
7374	7337	7311	7310	3	-0.778	-2.335	0.000	3.113	-0.000	0.000
7373	7337	7311	7312	3	-0.778	-2.335	0.000	3.113	-0.000	0.000
7376	7339	7338	7341	3	0.628	1.883	0.000	-2.510	-0.000	0.000
7375	7339	7338	7340	3	0.628	1.883	0.000	-2.510	-0.000	0.000
7375	7339	7338	7337	3	0.628	1.883	0.000	-2.510	-0.000	0.000
7377	7339	7338	7340	3	0.628	1.883	0.000	-2.510	-0.000	0.000
7379	7340	7338	7337	3	0.628	1.883	0.000	-2.510	-0.000	0.000
7378	7340	7338	7337	3	0.628	1.883	0.000	-2.510	-0.000	0.000
7377	7339	7338	7337	3	0.628	1.883	0.000	-2.510	-0.000	0.000
7379	7340	7338	7339	3	0.628	1.883	0.000	-2.510	-0.000	0.000
7376	7339	7338	7337	3	0.628	1.883	0.000	-2.510	-0.000	0.000
7381	7341	7338	7337	3	0.628	1.883	0.000	-2.510	-0.000	0.000
7381	7341	7338	7339	3	0.628	1.883	0.000	-2.510	-0.000	0.000
7374	7337	7338	7339	3	0.628	1.883	0.000	-2.510	-0.000	0.000
7377	7339	7338	7341	3	0.628	1.883	0.000	-2.510	-0.000	0.000
7374	7337	7338	7340	3	0.628	1.883	0.000	-2.510	-0.000	0.000
7382	7341	7338	7339	3	0.628	1.883	0.000	-2.510	-0.000	0.000
7378	7340	7338	7341	3	0.628	1.883	0.000	-2.510	-0.000	0.000
7379	7340	7338	7341	3	0.628	1.883	0.000	-2.510	-0.000	0.000
7380	7340	7338	7337	3	0.628	1.883	0.000	-2.510	-0.000	0.000
7373	7337	7338	7340	3	0.628	1.883	0.000	-2.510	-0.000	0.000
7373	7337	7338	7339	3	0.628	1.883	0.000	-2.510	-0.000	0.000
7378	7340	7338	7339	3	0.628	1.883	0.000	-2.510	-0.000	0.000
7374	7337	7338	7341	3	0.628	1.883	0.000	-2.510	-0.000	0.000
7382	7341	7338	7340	3	0.628	1.883	0.000	-2.510	-0.000	0.000
7376	7339	7338	7340	3	0.628	1.883	0.000	-2.510	-0.000	0.000
7375	7339	7338	7341	3	0.628	1.883	0.000	-2.510	-0.000	0.000
7382	7341	7338	7337	3	0.628	1.883	0.000	-2.510	-0.000	0.000
7373	7337	7338	7341	3	0.628	1.883	0.000	-2.510	-0.000	0.000
7380	7340	7338	7339	3	0.628	1.883	0.000	-2.510	-0.000	0.000
7381	7341	7338	7340	3	0.628	1.883	0.000	-2.510	-0.000	0.000
7380	7340	7338	7341	3	0.628	1.883	0.000	-2.510	-0.000	0.000
7349	7288	7287	7348	3	0.628	1.883	0.000	-2.510	-0.000	0.000
7350	7288	7287	7347	3	0.628	1.883	0.000	-2.510	-0.000	0.000
7349	7288	7287	7347	3	0.628	1.883	0.000	-2.510	-0.000	0.000
7350	7288	7287	7348	3	0.628	1.883	0.000	-2.510	-0.000	0.000
7350	7288	7287	7286	3	-4.096	5.088	2.966	-3.958	-0.000	0.000
7349	7288	7287	7286	3	-4.096	5.088	2.966	-3.958	-0.000	0.000
7348	7287	7288	7289	3	0.979	2.937	0.000	-3.916	-0.000	0.000
7347	7287	7288	7289	3	0.979	2.937	0.000	-3.916	-0.000	0.000
7348	7287	7286	7303	3	1.172	3.515	0.000	-4.686	-0.000	0.000
7344	7285	7286	7303	3	1.172	3.515	0.000	-4.686	-0.000	0.000
7347	7287	7286	7303	3	1.172	3.515	0.000	-4.686	-0.000	0.000
7345	7285	7286	7303	3	1.172	3.515	0.000	-4.686	-0.000	0.000
7346	7285	7286	7303	3	1.172	3.515	0.000	-4.686	-0.000	0.000
7347	7287	7286	7285	3	1.172	3.515	0.000	-4.686	-0.000	0.000
7345	7285	7286	7287	3	1.172	3.515	0.000	-4.686	-0.000	0.000
7348	7287	7286	7285	3	1.172	3.515	0.000	-4.686	-0.000	0.000
7346	7285	7286	7287	3	1.172	3.515	0.000	-4.686	-0.000	0.000
7344	7285	7286	7287	3	1.172	3.515	0.000	-4.686	-0.000	0.000
7349	7288	7289	7290	3	1.590	4.770	0.000	-6.360	-0.000	0.000
7350	7288	7289	7290	3	1.590	4.770	0.000	-6.360	-0.000	0.000
7355	7298	7297	7299	3	0.0	0.0	0.0	-0.0	-0.0	0.0
7355	7298	7297	7296	3	0.0	0.0	0.0	-0.0	-0.0	0.0
7298	7297	7296	7295	3	0.0	0.0	0.0	-0.0	-0.0	0.0
7325	7326	7315	7314	3	2.874	0.582	2.092	-5.548	-0.000	0.000
7325	7326	7315	7316	3	1.046	-1.046	0.000	-0.000	-0.000	0.000
7289	7288	7287	7286	3	16.736	-16.736	0.000	-0.000	-0.000	0.000
7325	7319	7316	7315	3	1.046	-1.046	0.000	-0.000	-0.000	0.000
7325	7319	7316	7317	3	9.079	0.000	-9.079	-0.000	-0.000	0.000
7394	7393	7392	7391	3	30.334	0.000	-30.334	-0.000	-0.000	0.000
7393	7401	7402	7390	3	30.334	0.000	-30.334	-0.000	-0.000	0.000
7393	7392	7391	7390	3	30.334	0.000	-30.334	-0.000	-0.000	0.000
7414	7413	7412	7411	3	21.738	2.408	-16.966	-7.180	-0.000	0.000
7410	7409	7408	7407	3	21.738	2.408	-16.966	-7.180	-0.000	0.000
7411	7410	7409	7408	3	21.738	2.408	-16.966	-7.180	-0.000	0.000
7412	7411	7410	7409	3	21.738	2.408	-16.966	-7.180	-0.000	0.000
7413	7412	7411	7410	3	21.738	2.408	-16.966	-7.180	-0.000	0.000
7409	7408	7407	7406	3	58.576	0.000	-58.576	-0.000	-0.000	0.000
7408	7407	7406	7405	3	16.027	-4.391	-14.029	2.393	-0.000	0.000
7407	7406	7405	7404	3	30.334	0.000	-30.334	-0.000	-0.000	0.000
7416	7415	7414	7413	3	58.576	0.000	-58.576	-0.000	-0.000	0.000
7401	7393	7394	7400	3	9.079	0.000	-9.079	-0.000	-0.000	0.000
7400	7394	7393	7392	3	9.079	0.000	-9.079	-0.000	-0.000	0.000
7401	7393	7394	7395	3	9.079	0.000	-9.079	-0.000	-0.000	0.000
7395	7394	7393	7392	3	9.079	0.000	-9.079	-0.000	-0.000	0.000
7400	7394	7395	7396	3	30.334	0.000	-30.334	-0.000	-0.000	0.000
7401	7393	7392	7391	3	30.334	0.000	-30.334	-0.000	-0.000	0.000
7399	7400	7394	7393	3	30.334	0.000	-30.334	-0.000	-0.000	0.000
7402	7401	7393	7394	3	30.334	0.000	-30.334	-0.000	-0.000	0.000
7396	7395	7394	7393	3	30.334	0.000	-30.334	-0.000	-0.000	0.000
7399	7400	7394	7395	3	30.334	0.000	-30.334	-0.000	-0.000	0.000
7402	7401	7393	7392	3	30.334	0.000	-30.334	-0.000	-0.000	0.000
7442	7406	7407	7408	3	16.027	-4.391	-14.029	2.393	-0.000	0.000
7397	7399	7400	7394	3	30.334	0.000	-30.334	-0.000	-0.000	0.000
7397	7396	7395	7394	3	30.334	0.000	-30.334	-0.000	-0.000	0.000
7443	7442	7406	7407	3	30.334	0.000	-30.334	-0.000	-0.000	0.000
7432	7427	7428	7429	3	30.334	0.000	-30.334	-0.000	-0.000	0.000
7443	7442	7406	7405	3	30.334	0.000	-30.334	-0.000	-0.000	0.000
7402	7390	7391	7392	3	30.334	0.000	-30.334	-0.000	-0.000	0.000
7442	7443	7403	7404	3	30.334	0.000	-30.334	-0.000	-0.000	0.000
7432	7431	7430	7429	3	30.334	0.000	-30.334	-0.000	-0.000	0.000
7431	7430	7429	7428	3	30.334	0.000	-30.334	-0.000	-0.000	0.000
7430	7429	7428	7427	3	30.334	0.000	-30.334	-0.000	-0.000	0.000
7406	7405	7404	7403	3	30.334	0.000	-30.334	-0.000	-0.000	0.000
7406	7442	7443	7403	3	30.334	0.000	-30.334	-0.000	-0.000	0.000
7443	7403	7404	7405	3	30.334	0.000	-30.334	-0.000	-0.000	0.000
7442	7406	7405	7404	3	30.334	0.000	-30.334	-0.000	-0.000	0.000
7431	7432	7427	7428	3	30.334	0.000	-30.334	-0.000	-0.000	0.000
7400	7399	7397	7396	3	30.334	0.000	-30.334	-0.000	-0.000	0.000
7401	7402	7390	7391	3	30.334	0.000	-30.334	-0.000	-0.000	0.000
7430	7431	7432	7427	3	30.334	0.000	-30.334	-0.000	-0.000	0.000
7399	7397	7396	7395	3	30.334	0.000	-30.334	-0.000	-0.000	0.000
7431	7432	7427	7426	3	30.334	0.000	-30.334	-0.000	-0.000	0.000
7429	7428	7427	7426	3	30.334	0.000	-30.334	-0.000	-0.000	0.000
7442	7443	7403	7386	3	30.334	0.000	-30.334	-0.000	-0.000	0.000
7405	7404	7403	7386	3	30.334	0.000	-30.334	-0.000	-0.000	0.000
7400	7399	7397	7398	3	0.0	0.0	0.0	-0.0	-0.0	0.0
7392	7391	7390	7389	3	30.334	0.000	-30.334	-0.000	-0.000	0.000
7401	7402	7390	7389	3	30.334	0.000	-30.334	-0.000	-0.000	0.000
7432	7427	7426	7415	3	0.000	0.000	0.000	-0.000	-0.000	0.000
7428	7427	7426	7415	3	0.000	0.000	0.000	-0.000	-0.000	0.000
7432	7427	7426	7425	3	0.000	0.000	0.000	-0.000	-0.000	0.000
7428	7427	7426	7425	3	0.000	0.000	0.000	-0.000	-0.000	0.000
7443	7403	7386	7387	3	5.184	35.932	-14.355	-26.761	-0.000	0.000
7404	7403	7386	7387	3	5.184	35.932	-14.355	-26.761	-0.000	0.000
7404	7403	7386	7385	3	5.184	35.932	-14.355	-26.761	-0.000	0.000
7443	7403	7386	7385	3	5.184	35.932	-14.355	-26.761	-0.000	0.000
7391	7390	7389	7388	3	12.552	0.000	-12.552	-0.000	-0.000	0.000
7402	7390	7389	7388	3	12.552	0.000	-12.552	-0.000	-0.000	0.000
7427	7426	7415	7414	3	6.322	-2.485	0.707	-4.544	-0.000	0.000
7427	7426	7415	7416	3	0.527	-6.397	-1.695	7.565	-0.000	0.000
7427	7426	7425	7419	3	1.715	2.845	1.046	-5.607	-0.000	0.000
7403	7386	7387	7388	3	1.789	3.492	0.536	-5.816	-0.000	0.000
7390	7389	7388	7387	3	1.715	2.845	1.046	-5.607	-0.000	0.000
7433	7426	7427	7428	3	0.000	0.000	0.000	-0.000	-0.000	0.000
7433	7426	7427	7432	3	0.000	0.000	0.000	-0.000	-0.000	0.000
7433	7426	7415	7414	3	6.322	-2.485	0.707	-4.544	-0.000	0.000
7433	7426	7415	7416	3	0.527	-6.397	-1.695	7.565	-0.000	0.000
7433	7426	7425	7419	3	1.715	2.845	1.046	-5.607	-0.000	0.000
7415	7414	7413	7412	3	21.738	2.408	-16.966	-7.180	-0.000	0.000
7420	7419	7416	7415	3	21.738	2.408	-16.966	-7.180	-0.000	0.000
7420	7419	7416	7417	3	-0.778	-2.335	0.000	3.113	-0.000	0.000
7441	7409	7408	7407	3	58.576	0.000	-58.576	-0.000	-0.000	0.000
7437	7411	7410	7409	3	58.576	0.000	-58.576	-0.000	-0.000	0.000
7441	7409	7410	7411	3	58.576	0.000	-58.576	-0.000	-0.000	0.000
7437	7411	7412	7413	3	58.576	0.000	-58.576	-0.000	-0.000	0.000
7426	7415	7414	7413	3	-0.778	-2.335	0.000	3.113	-0.000	0.000
7426	7415	7416	7419	3	58.576	0.000	-58.576	-0.000	-0.000	0.000
7426	7415	7416	7417	3	58.576	0.000	-58.576	-0.000	-0.000	0.000
7438	7441	7409	7408	3	0.527	-6.397	-1.695	7.565	-0.000	0.000
7438	7437	7411	7412	3	0.527	-6.397	-1.695	7.565	-0.000	0.000
7438	7437	7411	7410	3	0.527	-6.397	-1.695	7.565	-0.000	0.000
7438	7441	7409	7410	3	0.527	-6.397	-1.695	7.565	-0.000	0.000
7441	7438	7437	7411	3	2.301	-1.464	0.837	-1.674	-0.000	0.000
7440	7438	7441	7409	3	2.301	-1.464	0.837	-1.674	-0.000	0.000
7437	7438	7441	7409	3	2.301	-1.464	0.837	-1.674	-0.000	0.000
7439	7438	7441	7409	3	2.301	-1.464	0.837	-1.674	-0.000	0.000
7440	7438	7437	7411	3	2.301	-1.464	0.837	-1.674	-0.000	0.000
7439	7438	7437	7411	3	2.301	-1.464	0.837	-1.674	-0.000	0.000
7388	7387	7386	7385	3	1.789	3.492	0.536	-5.816	-0.000	0.000
7426	7425	7419	7416	3	30.334	0.000	-30.334	-0.000	-0.000	0.000
7426	7425	7419	7420	3	30.334	0.000	-30.334	-0.000	-0.000	0.000
7419	7416	7415	7414	3	58.576	0.000	-58.576	-0.000	-0.000	0.000
7419	7425	7426	7415	3	1.715	2.845	1.046	-5.607	-0.000	0.000
7417	7416	7415	7414	3	58.576	0.000	-58.576	-0.000	-0.000	0.000
7421	7420	7419	7416	3	58.576	0.000	-58.576	-0.000	-0.000	0.000
7423	7420	7419	7416	3	58.576	0.000	-58.576	-0.000	-0.000	0.000
7434	7433	7426	7427	3	0.000	0.000	0.000	-0.000	-0.000	0.000
7435	7433	7426	7427	3	0.000	0.000	0.000	-0.000	-0.000	0.000
7436	7433	7426	7427	3	0.000	0.000	0.000	-0.000	-0.000	0.000
7435	7433	7426	7415	3	0.000	0.000	0.000	-0.000	-0.000	0.000
7434	7433	7426	7415	3	0.000	0.000	0.000	-0.000	-0.000	0.000
7436	7433	7426	7415	3	0.000	0.000	0.000	-0.000	-0.000	0.000
7435	7433	7426	7425	3	1.130	3.389	0.000	-4.519	-0.000	0.000
7436	7433	7426	7425	3	1.130	3.389	0.000	-4.519	-0.000	0.000
7434	7433	7426	7425	3	1.130	3.389	0.000	-4.519	-0.000	0.000
7464	7410	7409	7408	3	58.576	0.000	-58.576	-0.000	-0.000	0.000
7464	7410	7411	7412	3	58.576	0.000	-58.576	-0.000	-0.000	0.000
7464	7410	7411	7437	3	58.576	0.000	-58.576	-0.000	-0.000	0.000
7464	7410	7409	7441	3	58.576	0.000	-58.576	-0.000	-0.000	0.000
7453	7395	7394	7393	3	30.334	0.000	-30.334	-0.000	-0.000	0.000
7452	7392	7393	7394	3	30.334	0.000	-30.334	-0.000	-0.000	0.000
7458	7401	7393	7394	3	30.334	0.000	-30.334	-0.000	-0.000	0.000
7457	7400	7394	7393	3	30.334	0.000	-30.334	-0.000	-0.000	0.000
7457	7400	7394	7395	3	30.334	0.000	-30.334	-0.000	-0.000	0.000
7453	7395	7394	7400	3	30.334	0.000	-30.334	-0.000	-0.000	0.000
7452	7392	7393	7401	3	30.334	0.000	-30.334	-0.000	-0.000	0.000
7458	7401	7393	7392	3	30.334	0.000	-30.334	-0.000	-0.000	0.000
7451	7391	7392	7393	3	30.334	0.000	-30.334	-0.000	-0.000	0.000
7459	7402	7401	7393	3	30.334	0.000	-30.334	-0.000	-0.000	0.000
7454	7396	7395	7394	3	30.334	0.000	-30.334	-0.000	-0.000	0.000
7456	7399	7400	7394	3	30.334	0.000	-30.334	-0.000	-0.000	0.000
7461	7405	7406	7407	3	30.334	0.000	-30.334	-0.000	-0.000	0.000
7483	7442	7406	7407	3	30.334	0.000	-30.334	-0.000	-0.000	0.000
7468	7428	7429	7430	3	30.334	0.000	-30.334	-0.000	-0.000	0.000
7456	7399	7397	7396	3	30.334	0.000	-30.334	-0.000	-0.000	0.000
7471	7431	7430	7429	3	30.334	0.000	-30.334	-0.000	-0.000	0.000
7483	7442	7443	7403	3	30.334	0.000	-30.334	-0.000	-0.000	0.000
7469	7429	7428	7427	3	30.334	0.000	-30.334	-0.000	-0.000	0.000
7484	7443	7442	7406	3	30.334	0.000	-30.334	-0.000	-0.000	0.000
7470	7430	7429	7428	3	30.334	0.000	-30.334	-0.000	-0.000	0.000
7459	7402	7390	7391	3	30.334	0.000	-30.334	-0.000	-0.000	0.000
7458	7401	7402	7390	3	30.334	0.000	-30.334	-0.000	-0.000	0.000
7483	7442	7406	7405	3	30.334	0.000	-30.334	-0.000	-0.000	0.000
7484	7443	7403	7404	3	30.334	0.000	-30.334	-0.000	-0.000	0.000
7471	7431	7432	7427	3	30.334	0.000	-30.334	-0.000	-0.000	0.000
7468	7428	7427	7432	3	30.334	0.000	-30.334	-0.000	-0.000	0.000
7453	7395	7396	7397	3	30.334	0.000	-30.334	-0.000	-0.000	0.000
7454	7396	7397	7399	3	30.334	0.000	-30.334	-0.000	-0.000	0.000
7451	7391	7390	7402	3	30.334	0.000	-30.334	-0.000	-0.000	0.000
7460	7404	7403	7443	3	30.334	0.000	-30.334	-0.000	-0.000	0.000
7460	7404	7405	7406	3	30.334	0.000	-30.334	-0.000	-0.000	0.000
7457	7400	7399	7397	3	30.334	0.000	-30.334	-0.000	-0.000	0.000
7461	7405	7406	7442	3	30.334	0.000	-30.334	-0.000	-0.000	0.000
7470	7430	7431	7432	3	30.334	0.000	-30.334	-0.000	-0.000	0.000
7472	7432	7431	7430	3	30.334	0.000	-30.334	-0.000	-0.000	0.000
7469	7429	7430	7431	3	30.334	0.000	-30.334	-0.000	-0.000	0.000
7472	7432	7427	7428	3	30.334	0.000	-30.334	-0.000	-0.000	0.000
7452	7392	7391	7390	3	30.334	0.000	-30.334	-0.000	-0.000	0.000
7461	7405	7404	7403	3	30.334	0.000	-30.334	-0.000	-0.000	0.000
7472	7432	7427	7426	3	30.334	0.000	-30.334	-0.000	-0.000	0.000
7468	7428	7427	7426	3	30.334	0.000	-30.334	-0.000	-0.000	0.000
7461	7405	7404	7460	3	30.334	0.000	-30.334	-0.000	-0.000	0.000
7484	7443	7442	7483	3	30.334	0.000	-30.334	-0.000	-0.000	0.000
7470	7430	7429	7469	3	30.334	0.000	-30.334	-0.000	-0.000	0.000
7454	7396	7395	7453	3	30.334	0.000	-30.334	-0.000	-0.000	0.000
7459	7402	7401	7458	3	30.334	0.000	-30.334	-0.000	-0.000	0.000
7457	7400	7399	7456	3	30.334	0.000	-30.334	-0.000	-0.000	0.000
7469	7429	7428	7468	3	30.334	0.000	-30.334	-0.000	-0.000	0.000
7452	7392	7391	7451	3	30.334	0.000	-30.334	-0.000	-0.000	0.000
7471	7431	7430	7470	3	30.334	0.000	-30.334	-0.000	-0.000	0.000
7472	7432	7431	7471	3	30.334	0.000	-30.334	-0.000	-0.000	0.000
7484	7443	7403	7386	3	30.334	0.000	-30.334	-0.000	-0.000	0.000
7460	7404	7403	7386	3	30.334	0.000	-30.334	-0.000	-0.000	0.000
7454	7396	7397	7398	3	0.0	0.0	0.0	-0.0	-0.0	0.0
7456	7399	7397	7398	3	0.0	0.0	0.0	-0.0	-0.0	0.0
7451	7391	7390	7389	3	30.334	0.000	-30.334	-0.000	-0.000	0.000
7459	7402	7390	7389	3	30.334	0.000	-30.334	-0.000	-0.000	0.000
7465	7412	7411	7410	3	58.576	0.000	-58.576	-0.000	-0.000	0.000
7465	7412	7413	7414	3	58.576	0.000	-58.576	-0.000	-0.000	0.000
7467	7414	7413	7412	3	58.576	0.000	-58.576	-0.000	-0.000	0.000
7466	7413	7412	7411	3	58.576	0.000	-58.576	-0.000	-0.000	0.000
7463	7408	7409	7410	3	58.576	0.000	-58.576	-0.000	-0.000	0.000
7462	7407	7408	7409	3	58.576	0.000	-58.576	-0.000	-0.000	0.000
7463	7408	7407	7406	3	58.576	0.000	-58.576	-0.000	-0.000	0.000
7466	7413	7414	7415	3	58.576	0.000	-58.576	-0.000	-0.000	0.000
7465	7412	7411	7437	3	58.576	0.000	-58.576	-0.000	-0.000	0.000
7463	7408	7409	7441	3	58.576	0.000	-58.576	-0.000	-0.000	0.000
7463	7408	7407	7462	3	58.576	0.000	-58.576	-0.000	-0.000	0.000
7466	7413	7412	7465	3	58.576	0.000	-58.576	-0.000	-0.000	0.000
7467	7414	7413	7466	3	58.576	0.000	-58.576	-0.000	-0.000	0.000
7462	7407	7406	7442	3	-0.778	-2.335	0.000	3.113	-0.000	0.000
7462	7407	7406	7405	3	-0.778	-2.335	0.000	3.113	-0.000	0.000
7467	7414	7415	7416	3	58.576	0.000	-58.576	-0.000	-0.000	0.000
7467	7414	7415	7426	3	58.576	0.000	-58.576	-0.000	-0.000	0.000
7481	7441	7409	7408	3	-0.778	-2.335	0.000	3.113	-0.000	0.000
7481	7441	7409	7410	3	-0.778	-2.335	0.000	3.113	-0.000	0.000
7482	7441	7409	7408	3	-0.778	-2.335	0.000	3.113	-0.000	0.000
7474	7437	7411	7412	3	-0.778	-2.335	0.000	3.113	-0.000	0.000
7482	7441	7409	7410	3	-0.778	-2.335	0.000	3.113	-0.000	0.000
7473	7437	7411	7410	3	-0.778	-2.335	0.000	3.113	-0.000	0.000
7474	7437	7411	7410	3	-0.778	-2.335	0.000	3.113	-0.000	0.000
7473	7437	7411	7412	3	-0.778	-2.335	0.000	3.113	-0.000	0.000
7476	7439	7438	7441	3	0.628	1.883	0.000	-2.510	-0.000	0.000
7475	7439	7438	7440	3	0.628	1.883	0.000	-2.510	-0.000	0.000
7475	7439	7438	7437	3	0.628	1.883	0.000	-2.510	-0.000	0.000
7477	7439	7438	7440	3	0.628	1.883	0.000	-2.510	-0.000	0.000
7479	7440	7438	7437	3	0.628	1.883	0.000	-2.510	-0.000	0.000
7478	7440	7438	7437	3	0.628	1.883	0.000	-2.510	-0.000	0.000
7477	7439	7438	7437	3	0.628	1.883	0.000	-2.510	-0.000	0.000
7479	7440	7438	7439	3	0.628	1.883	0.000	-2.510	-0.000	0.000
7476	7439	7438	7437	3	0.628	1.883	0.000	-2.510	-0.000	0.000
7481	7441	7438	7437	3	0.628	1.883	0.000	-2.510	-0.000	0.000
7481	7441	7438	7439	3	0.628	1.883	0.000	-2.510	-0.000	0.000
7474	7437	7438	7439	3	0.628	1.883	0.000	-2.510	-0.000	0.000
7477	7439	7438	7441	3	0.628	1.883	0.000	-2.510	-0.000	0.000
7474	7437	7438	7440	3	0.628	1.883	0.000	-2.510	-0.000	0.000
7482	7441	7438	7439	3	0.628	1.883	0.000	-2.510	-0.000	0.000
7478	7440	7438	7441	3	0.628	1.883	0.000	-2.510	-0.000	0.000
7479	7440	7438	7441	3	0.628	1.883	0.000	-2.510	-0.000	0.000
7480	7440	7438	7437	3	0.628	1.883	0.000	-2.510	-0.000	0.000
7473	7437	7438	7440	3	0.628	1.883	0.000	-2.510	-0.000	0.000
7473	7437	7438	7439	3	0.628	1.883	0.000	-2.510	-0.000	0.000
7478	7440	7438	7439	3	0.628	1.883	0.000	-2.510	-0.000	0.000
7474	7437	7438	7441	3	0.628	1.883	0.000	-2.510	-0.000	0.000
7482	7441	7438	7440	3	0.628	1.883	0.000	-2.510	-0.000	0.000
7476	7439	7438	7440	3	0.628	1.883	0.000	-2.510	-0.000	0.000
7475	7439	7438	7441	3	0.628	1.883	0.000	-2.510	-0.000	0.000
7482	7441	7438	7437	3	0.628	1.883	0.000	-2.510	-0.000	0.000
7473	7437	7438	7441	3	0.628	1.883	0.000	-2.510	-0.000	0.000
7480	7440	7438	7439	3	0.628	1.883	0.000	-2.510	-0.000	0.000
7481	7441	7438	7440	3	0.628	1.883	0.000	-2.510	-0.000	0.000
7480	7440	7438	7441	3	0.628	1.883	0.000	-2.510	-0.000	0.000
7449	7388	7387	7448	3	0.628	1.883	0.000	-2.510	-0.000	0.000
7450	7388	7387	7447	3	0.628	1.883	0.000	-2.510	-0.000	0.000
7449	7388	7387	7447	3	0.628	1.883	0.000	-2.510	-0.000	0.000
7450	7388	7387	7448	3	0.628	1.883	0.000	-2.510	-0.000	0.000
7450	7388	7387	7386	3	-4.096	5.088	2.966	-3.958	-0.000	0.000
7449	7388	7387	7386	3	-4.096	5.088	2.966	-3.958	-0.000	0.000
7448	7387	7388	7389	3	0.979	2.937	0.000	-3.916	-0.000	0.000
7447	7387	7388	7389	3	0.979	2.937	0.000	-3.916	-0.000	0.000
7448	7387	7386	7403	3	1.172	3.515	0.000	-4.686	-0.000	0.000
7444	7385	7386	7403	3	1.172	3.515	0.000	-4.686	-0.000	0.000
7447	7387	7386	7403	3	1.172	3.515	0.000	-4.686	-0.000	0.000
7445	7385	7386	7403	3	1.172	3.515	0.000	-4.686	-0.000	0.000
7446	7385	7386	7403	3	1.172	3.515	0.000	-4.686	-0.000	0.000
7447	7387	7386	7385	3	1.172	3.515	0.000	-4.686	-0.000	0.000
7445	7385	7386	7387	3	1.172	3.515	0.000	-4.686	-0.000	0.000
7448	7387	7386	7385	3	1.172	3.515	0.000	-4.686	-0.000	0.000
7446	7385	7386	7387	3	1.172	3.515	0.000	-4.686	-0.000	0.000
7444	7385	7386	7387	3	1.172	3.515	0.000	-4.686	-0.000	0.000
7449	7388	7389	7390	3	1.590	4.770	0.000	-6.360	-0.000	0.000
7450	7388	7389	7390	3	1.590	4.770	0.000	-6.360	-0.000	0.000
7455	7398	7397	7399	3	0.0	0.0	0.0	-0.0	-0.0	0.0
7455	7398	7397	7396	3	0.0	0.0	0.0	-0.0	-0.0	0.0
7398	7397	7396	7395	3	0.0	0.0	0.0	-0.0	-0.0	0.0
7425	7426	7415	7414	3	2.874	0.582	2.092	-5.548	-0.000	0.000
7425	7426	7415	7416	3	1.046	-1.046	0.000	-0.000	-0.000	0.000
7389	7388	7387	7386	3	16.736	-16.736	0.000	-0.000	-0.000	0.000
7425	7419	7416	7415	3	1.046	-1.046	0.000	-0.000	-0.000	0.000
7425	7419	7416	7417	3	9.079	0.000	-9.079	-0.000	-0.000	0.000
7494	7493	7492	7491	3	30.334	0.000	-30.334	-0.000	-0.000	0.000
7493	7501	7502	7490	3	30.334	0.000	-30.334	-0.000	-0.000	0.000
7493	7492	7491	7490	3	30.334	0.000	-30.334	-0.000	-0.000	0.000
7514	7513	7512	7511	3	21.738	2.408	-16.966	-7.180	-0.000	0.000
7510	7509	7508	7507	3	21.738	2.408	-16.966	-7.180	-0.000	0.000
7511	7510	7509	7508	3	21.738	2.408	-16.966	-7.180	-0.000	0.000
7512	7511	7510	7509	3	21.738	2.408	-16.966	-7.180	-0.000	0.000
7513	7512	7511	7510	3	21.738	2.408	-16.966	-7.180	-0.000	0.000
7509	7508	7507	7506	3	58.576	0.000	-58.576	-0.000	-0.000	0.000
7508	7507	7506	7505	3	16.027	-4.391	-14.029	2.393	-0.000	0.000
7507	7506	7505	7504	3	30.334	0.000	-30.334	-0.000	-0.000	0.000
7516	7515	7514	7513	3	58.576	0.000	-58.576	-0.000	-0.000	0.000
7501	7493	7494	7500	3	9.079	0.000	-9.079	-0.000	-0.000	0.000
7500	7494	7493	7492	3	9.079	0.000	-9.079	-0.000	-0.000	0.000
7501	7493	7494	7495	3	9.079	0.000	-9.079	-0.000	-0.000	0.000
7495	7494	7493	7492	3	9.079	0.000	-9.079	-0.000	-0.000	0.000
7500	7494	7495	7496	3	30.334	0.000	-30.334	-0.000	-0.000	0.000
7501	7493	7492	7491	3	30.334	0.000	-30.334	-0.000	-0.000	0.000
7499	7500	7494	7493	3	30.334	0.000	-30.334	-0.000	-0.000	0.000
7502	7501	7493	7494	3	30.334	0.000	-30.334	-0.000	-0.000	0.000
7496	7495	7494	7493	3	30.334	0.000	-30.334	-0.000	-0.000	0.000
7499	7500	7494	7495	3	30.334	0.000	-30.334	-0.000	-0.000	0.000
7502	7501	7493	7492	3	30.334	0.000	-30.334	-0.000	-0.000	0.000
7542	7506	7507	7508	3	16.027	-4.391	-14.029	2.393	-0.000	0.000
7497	7499	7500	7494	3	30.334	0.000	-30.334	-0.000	-0.000	0.000
7497	7496	7495	7494	3	30.334	0.000	-30.334	-0.000	-0.000	0.000
7543	7542	7506	7507	3	30.334	0.000	-30.334	-0.000	-0.000	0.000
7532	7527	7528	7529	3	30.334	0.000	-30.334	-0.000	-0.000	0.000
7543	7542	7506	7505	3	30.334	0.000	-30.334	-0.000	-0.000	0.000
7502	7490	7491	7492	3	30.334	0.000	-30.334	-0.000	-0.000	0.000
7542	7543	7503	7504	3	30.334	0.000	-30.334	-0.000	-0.000	0.000
7532	7531	7530	7529	3	30.334	0.000	-30.334	-0.000	-0.000	0.000
7531	7530	7529	7528	3	30.334	0.000	-30.334	-0.000	-0.000	0.000
7530	7529	7528	7527	3	30.334	0.000	-30.334	-0.000	-0.000	0.000
7506	7505	7504	7503	3	30.334	0.000	-30.334	-0.000	-0.000	0.000
7506	7542	7543	7503	3	30.334	0.000	-30.334	-0.000	-0.000	0.000
7543	7503	7504	7505	3	30.334	0.000	-30.334	-0.000	-0.000	0.000
7542	7506	7505	7504	3	30.334	0.000	-30.334	-0.000	-0.000	0.000
7531	7532	7527	7528	3	30.334	0.000	-30.334	-0.000	-0.000	0.000
7500	7499	7497	7496	3	30.334	0.000	-30.334	-0.000	-0.000	0.000
7501	7502	7490	7491	3	30.334	0.000	-30.334	-0.000	-0.000	0.000
7530	7531	7532	7527	3	30.334	0.000	-30.334	-0.000	-0.000	0.000
7499	7497	7496	7495	3	30.334	0.000	-30.334	-0.000	-0.000	0.000
7531	7532	7527	7526	3	30.334	0.000	-30.334	-0.000	-0.000	0.000
7529	7528	7527	7526	3	30.334	0.000	-30.334	-0.000	-0.000	0.000
7542	7543	7503	7486	3	30.334	0.000	-30.334	-0.000	-0.000	0.000
7505	7504	7503	7486	3	30.334	0.000	-30.334	-0.000	-0.000	0.000
7500	7499	7497	7498	3	0.0	0.0	0.0	-0.0	-0.0	0.0
7492	7491	7490	7489	3	30.334	0.000	-30.334	-0.000	-0.000	0.000
7501	7502	7490	7489	3	30.334	0.000	-30.334	-0.000	-0.000	0.000
7532	7527	7526	7515	3	0.000	0.000	0.000	-0.000	-0.000	0.000
7528	7527	7526	7515	3	0.000	0.000	0.000	-0.000	-0.000	0.000
7532	7527	7526	7525	3	0.000	0.000	0.000	-0.000	-0.000	0.000
7528	7527	7526	7525	3	0.000	0.000	0.000	-0.000	-0.000	0.000
7543	7503	7486	7487	3	5.184	35.932	-14.355	-26.761	-0.000	0.000
7504	7503	7486	7487	3	5.184	35.932	-14.355	-26.761	-0.000	0.000
7504	7503	7486	7485	3	5.184	35.932	-14.355	-26.761	-0.000	0.000
7543	7503	7486	7485	3	5.184	35.932	-14.355	-26.761	-0.000	0.000
7491	7490	7489	7488	3	12.552	0.000	-12.552	-0.000	-0.000	0.000
7502	7490	7489	7488	3	12.552	0.000	-12.552	-0.000	-0.000	0.000
7527	7526	7515	7514	3	6.322	-2.485	0.707	-4.544	-0.000	0.000
7527	7526	7515	7516	3	0.527	-6.397	-1.695	7.565	-0.000	0.000
7527	7526	7525	7519	3	1.715	2.845	1.046	-5.607	-0.000	0.000
7503	7486	7487	7488	3	1.789	3.492	0.536	-5.816	-0.000	0.000
7490	7489	7488	7487	3	1.715	2.845	1.046	-5.607	-0.000	0.000
7533	7526	7527	7528	3	0.000	0.000	0.000	-0.000	-0.000	0.000
7533	7526	7527	7532	3	0.000	0.000	0.000	-0.000	-0.000	0.000
7533	7526	7515	7514	3	6.322	-2.485	0.707	-4.544	-0.000	0.000
7533	7526	7515	7516	3	0.527	-6.397	-1.695	7.565	-0.000	0.000
7533	7526	7525	7519	3	1.715	2.845	1.046	-5.607	-0.000	0.000
7515	7514	7513	7512	3	21.738	2.408	-16.966	-7.180	-0.000	0.000
7520	7519	7516	7515	3	21.738	2.408	-16.966	-7.180	-0.000	0.000
7520	7519	7516	7517	3	-0.778	-2.335	0.000	3.113	-0.000	0.000
7541	7509	7508	7507	3	58.576	0.000	-58.576	-0.000	-0.000	0.000
7537	7511	7510	7509	3	58.576	0.000	-58.576	-0.000	-0.000	0.000
7541	7509	7510	7511	3	58.576	0.000	-58.576	-0.000	-0.000	0.000
7537	7511	7512	7513	3	58.576	0.000	-58.576	-0.000	-0.000	0.000
7526	7515	7514	7513	3	-0.778	-2.335	0.000	3.113	-0.000	0.000
7526	7515	7516	7519	3	58.576	0.000	-58.576	-0.000	-0.000	0.000
7526	7515	7516	7517	3	58.576	0.000	-58.576	-0.000	-0.000	0.000
7538	7541	7509	7508	3	0.527	-6.397	-1.695	7.565	-0.000	0.000
7538	7537	7511	7512	3	0.527	-6.397	-1.695	7.565	-0.000	0.000
7538	7537	7511	7510	3	0.527	-6.397	-1.695	7.565	-0.000	0.000
7538	7541	7509	7510	3	0.527	-6.397	-1.695	7.565	-0.000	0.000
7541	7538	7537	7511	3	2.301	-1.464	0.837	-1.674	-0.000	0.000
7540	7538	7541	7509	3	2.301	-1.464	0.837	-1.674	-0.000	0.000
7537	7538	7541	7509	3	2.301	-1.464	0.837	-1.674	-0.000	0.000
7539	7538	7541	7509	3	2.301	-1.464	0.837	-1.674	-0.000	0.000
7540	7538	7537	7511	3	2.301	-1.464	0.837	-1.674	-0.000	0.000
7539	7538	7537	7511	3	2.301	-1.464	0.837	-1.674	-0.000	0.000
7488	7487	7486	7485	3	1.789	3.492	0.536	-5.816	-0.000	0.000
7526	7525	7519	7516	3	30.334	0.000	-30.334	-0.000	-0.000	0.000
7526	7525	7519	7520	3	30.334	0.000	-30.334	-0.000	-0.000	0.000
7519	7516	7515	7514	3	58.576	0.000	-58.576	-0.000	-0.000	0.000
7519	7525	7526	7515	3	1.715	2.845	1.046	-5.607	-0.000	0.000
7517	7516	7515	7514	3	58.576	0.000	-58.576	-0.000	-0.000	0.000
7521	7520	7519	7516	3	58.576	0.000	-58.576	-0.000	-0.000	0.000
7523	7520	7519	7516	3	58.576	0.000	-58.576	-0.000	-0.000	0.000
7534	7533	7526	7527	3	0.000	0.000	0.000	-0.000	-0.000	0.000
7535	7533	7526	7527	3	0.000	0.000	0.000	-0.000	-0.000	0.000
7536	7533	7526	7527	3	0.000	0.000	0.000	-0.000	-0.000	0.000
7535	7533	7526	7515	3	0.000	0.000	0.000	-0.000	-0.000	0.000
7534	7533	7526	7515	3	0.000	0.000	0.000	-0.000	-0.000	0.000
7536	7533	7526	7515	3	0.000	0.000	0.000	-0.000	-0.000	0.000
7535	7533	7526	7525	3	1.130	3.389	0.000	-4.519	-0.000	0.000
7536	7533	7526	7525	3	1.130	3.389	0.000	-4.519	-0.000	0.000
7534	7533	7526	7525	3	1.130	3.389	0.000	-4.519	-0.000	0.000
7564	7510	7509	7508	3	58.576	0.000	-58.576	-0.000	-0.000	0.000
7564	7510	7511	7512	3	58.576	0.000	-58.576	-0.000	-0.000	0.000
7564	7510	7511	7537	3	58.576	0.000	-58.576	-0.000	-0.000	0.000
7564	7510	7509	7541	3	58.576	0.000	-58.576	-0.000	-0.000	0.000
7553	7495	7494	7493	3	30.334	0.000	-30.334	-0.000	-0.000	0.000
7552	7492	7493	7494	3	30.334	0.000	-30.334	-0.000	-0.000	0.000
7558	7501	7493	7494	3	30.334	0.000	-30.334	-0.000	-0.000	0.000
7557	7500	7494	7493	3	30.334	0.000	-30.334	-0.000	-0.000	0.000
7557	7500	7494	7495	3	30.334	0.000	-30.334	-0.000	-0.000	0.000
7553	7495	7494	7500	3	30.334	0.000	-30.334	-0.000	-0.000	0.000
7552	7492	7493	7501	3	30.334	0.000	-30.334	-0.000	-0.000	0.000
7558	7501	7493	7492	3	30.334	0.000	-30.334	-0.000	-0.000	0.000
7551	7491	7492	7493	3	30.334	0.000	-30.334	-0.000	-0.000	0.000
7559	7502	7501	7493	3	30.334	0.000	-30.334	-0.000	-0.000	0.000
7554	7496	7495	7494	3	30.334	0.000	-30.334	-0.000	-0.000	0.000
7556	7499	7500	7494	3	30.334	0.000	-30.334	-0.000	-0.000	0.000
7561	7505	7506	7507	3	30.334	0.000	-30.334	-0.000	-0.000	0.000
7583	7542	7506	7507	3	30.334	0.000	-30.334	-0.000	-0.000	0.000
7568	7528	7529	7530	3	30.334	0.000	-30.334	-0.000	-0.000	0.000
7556	7499	7497	7496	3	30.334	0.000	-30.334	-0.000	-0.000	0.000
7571	7531	7530	7529	3	30.334	0.000	-30.334	-0.000	-0.000	0.000
7583	7542	7543	7503	3	30.334	0.000	-30.334	-0.000	-0.000	0.000
7569	7529	7528	7527	3	30.334	0.000	-30.334	-0.000	-0.000	0.000
7584	7543	7542	7506	3	30.334	0.000	-30.334	-0.000	-0.000	0.000
7570	7530	7529	7528	3	30.334	0.000	-30.334	-0.000	-0.000	0.000
7559	7502	7490	7491	3	30.334	0.000	-30.334	-0.000	-0.000	0.000
7558	7501	7502	7490	3	30.334	0.000	-30.334	-0.000	-0.000	0.000
7583	7542	7506	7505	3	30.334	0.000	-30.334	-0.000	-0.000	0.000
7584	7543	7503	7504	3	30.334	0.000	-30.334	-0.000	-0.000	0.000
7571	7531	7532	7527	3	30.334	0.000	-30.334	-0.000	-0.000	0.000
7568	7528	7527	7532	3	30.334	0.000	-30.334	-0.000	-0.000	0.000
7553	7495	7496	7497	3	30.334	0.000	-30.334	-0.000	-0.000	0.000
7554	7496	7497	7499	3	30.334	0.000	-30.334	-0.000	-0.000	0.000
7551	7491	7490	7502	3	30.334	0.000	-30.334	-0.000	-0.000	0.000
7560	7504	7503	7543	3	30.334	0.000	-30.334	-0.000	-0.000	0.000
7560	7504	7505	7506	3	30.334	0.000	-30.334	-0.000	-0.000	0.000
7557	7500	7499	7497	3	30.334	0.000	-30.334	-0.000	-0.000	0.000
7561	7505	7506	7542	3	30.334	0.000	-30.334	-0.000	-0.000	0.000
7570	7530	7531	7532	3	30.334	0.000	-30.334	-0.000	-0.000	0.000
7572	7532	7531	7530	3	30.334	0.000	-30.334	-0.000	-0.000	0.000
7569	7529	7530	7531	3	30.334	0.000	-30.334	-0.000	-0.000	0.000
7572	7532	7527	7528	3	30.334	0.000	-30.334	-0.000	-0.000	0.000
7552	7492	7491	7490	3	30.334	0.000	-30.334	-0.000	-0.000	0.000
7561	7505	7504	7503	3	30.334	0.000	-30.334	-0.000	-0.000	0.000
7572	7532	7527	7526	3	30.334	0.000	-30.334	-0.000	-0.000	0.000
7568	7528	7527	7526	3	30.334	0.000	-30.334	-0.000	-0.000	0.000
7561	7505	7504	7560	3	30.334	0.000	-30.334	-0.000	-0.000	0.000
7584	7543	7542	7583	3	30.334	0.000	-30.334	-0.000	-0.000	0.000
7570	7530	7529	7569	3	30.334	0.000	-30.334	-0.000	-0.000	0.000
7554	7496	7495	7553	3	30.334	0.000	-30.334	-0.000	-0.000	0.000
7559	7502	7501	7558	3	30.334	0.000	-30.334	-0.000	-0.000	0.000
7557	7500	7499	7556	3	30.334	0.000	-30.334	-0.000	-0.000	0.000
7569	7529	7528	7568	3	30.334	0.000	-30.334	-0.000	-0.000	0.000
7552	7492	7491	7551	3	30.334	0.000	-30.334	-0.000	-0.000	0.000
7571	7531	7530	7570	3	30.334	0.000	-30.334	-0.000	-0.000	0.000
7572	7532	7531	7571	3	30.334	0.000	-30.334	-0.000	-0.000	0.000
7584	7543	7503	7486	3	30.334	0.000	-30.334	-0.000	-0.000	0.000
7560	7504	7503	7486	3	30.334	0.000	-30.334	-0.000	-0.000	0.000
7554	7496	7497	7498	3	0.0	0.0	0.0	-0.0	-0.0	0.0
7556	7499	7497	7498	3	0.0	0.0	0.0	-0.0	-0.0	0.0
7551	7491	7490	7489	3	30.334	0.000	-30.334	-0.000	-0.000	0.000
7559	7502	7490	7489	3	30.334	0.000	-30.334	-0.000	-0.000	0.000
7565	7512	7511	7510	3	58.576	0.000	-58.576	-0.000	-0.000	0.000
7565	7512	7513	7514	3	58.576	0.000	-58.576	-0.000	-0.000	0.000
7567	7514	7513	7512	3	58.576	0.000	-58.576	-0.000	-0.000	0.000
7566	7513	7512	7511	3	58.576	0.000	-58.576	-0.000	-0.000	0.000
7563	7508	7509	7510	3	58.576	0.000	-58.576	-0.000	-0.000	0.000
7562	7507	7508	7509	3	58.576	0.000	-58.576	-0.000	-0.000	0.000
7563	7508	7507	7506	3	58.576	0.000	-58.576	-0.000	-0.000	0.000
7566	7513	7514	7515	3	58.576	0.000	-58.576	-0.000	-0.000	0.000
7565	7512	7511	7537	3	58.576	0.000	-58.576	-0.000	-0.000	0.000
7563	7508	7509	7541	3	58.576	0.000	-58.576	-0.000	-0.000	0.000
7563	7508	7507	7562	3	58.576	0.000	-58.576	-0.000	-0.000	0.000
7566	7513	7512	7565	3	58.576	0.000	-58.576	-0.000	-0.000	0.000
7567	7514	7513	7566	3	58.576	0.000	-58.576	-0.000	-0.000	0.000
7562	7507	7506	7542	3	-0.778	-2.335	0.000	3.113	-0.000	0.000
7562	7507	7506	7505	3	-0.778	-2.335	0.000	3.113	-0.000	0.000
7567	7514	7515	7516	3	58.576	0.000	-58.576	-0.000	-0.000	0.000
7567	7514	7515	7526	3	58.576	0.000	-58.576	-0.000	-0.000	0.000
7581	7541	7509	7508	3	-0.778	-2.335	0.000	3.113	-0.000	0.000
7581	7541	7509	7510	3	-0.778	-2.335	0.000	3.113	-0.000	0.000
7582	7541	7509	7508	3	-0.778	-2.335	0.000	3.113	-0.000	0.000
7574	7537	7511	7512	3	-0.778	-2.335	0.000	3.113	-0.000	0.000
7582	7541	7509	7510	3	-0.778	-2.335	0.000	3.113	-0.000	0.000
7573	7537	7511	7510	3	-0.778	-2.335	0.000	3.113	-0.000	0.000
7574	7537	7511	7510	3	-0.778	-2.335	0.000	3.113	-0.000	0.000
7573	7537	7511	7512	3	-0.778	-2.335	0.000	3.113	-0.000	0.000
7576	7539	7538	7541	3	0.628	1.883	0.000	-2.510	-0.000	0.000
7575	7539	7538	7540	3	0.628	1.883	0.000	-2.510	-0.000	0.000
7575	7539	7538	7537	3	0.628	1.883	0.000	-2.510	-0.000	0.000
7577	7539	7538	7540	3	0.628	1.883	0.000	-2.510	-0.000	0.000
7579	7540	7538	7537	3	0.628	1.883	0.000	-2.510	-0.000	0.000
7578	7540	7538	7537	3	0.628	1.883	0.000	-2.510	-0.000	0.000
7577	7539	7538	7537	3	0.628	1.883	0.000	-2.510	-0.000	0.000
7579	7540	7538	7539	3	0.628	1.883	0.000	-2.510	-0.000	0.000
7576	7539	7538	7537	3	0.628	1.883	0.000	-2.510	-0.000	0.000
7581	7541	7538	7537	3	0.628	1.883	0.000	-2.510	-0.000	0.000
7581	7541	7538	7539	3	0.628	1.883	0.000	-2.510	-0.000	0.000
7574	7537	7538	7539	3	0.628	1.883	0.000	-2.510	-0.000	0.000
7577	7539	7538	7541	3	0.628	1.883	0.000	-2.510	-0.000	0.000
7574	7537	7538	7540	3	0.628	1.883	0.000	-2.510	-0.000	0.000
7582	7541	7538	7539	3	0.628	1.883	0.000	-2.510	-0.000	0.000
7578	7540	7538	7541	3	0.628	1.883	0.000	-2.510	-0.000	0.000
7579	7540	7538	7541	3	0.628	1.883	0.000	-2.510	-0.000	0.000
7580	7540	7538	7537	3	0.628	1.883	0.000	-2.510	-0.000	0.000
7573	7537	7538	7540	3	0.628	1.883	0.000	-2.510	-0.000	0.000
7573	7537	7538	7539	3	0.628	1.883	0.000	-2.510	-0.000	0.000
7578	7540	7538	7539	3	0.628	1.883	0.000	-2.510	-0.000	0.000
7574	7537	7538	7541	3	0.628	1.883	0.000	-2.510	-0.000	0.000
7582	7541	7538	7540	3	0.628	1.883	0.000	-2.510	-0.000	0.000
7576	7539	7538	7540	3	0.628	1.883	0.000	-2.510	-0.000	0.000
7575	7539	7538	7541	3	0.628	1.883	0.000	-2.510	-0.000	0.000
7582	7541	7538	7537	3	0.628	1.883	0.000	-2.510	-0.000	0.000
7573	7537	7538	7541	3	0.628	1.883	0.000	-2.510	-0.000	0.000
7580	7540	7538	7539	3	0.628	1.883	0.000	-2.510	-0.000	0.000
7581	7541	7538	7540	3	0.628	1.883	0.000	-2.510	-0.000	0.000
7580	7540	7538	7541	3	0.628	1.883	0.000	-2.510	-0.000	0.000
7549	7488	7487	7548	3	0.628	1.883	0.000	-2.510	-0.000	0.000
7550	7488	7487	7547	3	0.628	1.883	0.000	-2.510	-0.000	0.000
7549	7488	7487	7547	3	0.628	1.883	0.000	-2.510	-0.000	0.000
7550	7488	7487	7548	3	0.628	1.883	0.000	-2.510	-0.000	0.000
7550	7488	7487	7486	3	-4.096	5.088	2.966	-3.958	-0.000	0.000
7549	7488	7487	7486	3	-4.096	5.088	2.966	-3.958	-0.000	0.000
7548	7487	7488	7489	3	0.979	2.937	0.000	-3.916	-0.000	0.000
7547	7487	7488	7489	3	0.979	2.937	0.000	-3.916	-0.000	0.000
7548	7487	7486	7503	3	1.172	3.515	0.000	-4.686	-0.000	0.000
7544	7485	7486	7503	3	1.172	3.515	0.000	-4.686	-0.000	0.000
7547	7487	7486	7503	3	1.172	3.515	0.000	-4.686	-0.000	0.000
7545	7485	7486	7503	3	1.172	3.515	0.000	-4.686	-0.000	0.000
7546	7485	7486	7503	3	1.172	3.515	0.000	-4.686	-0.000	0.000
7547	7487	7486	7485	3	1.172	3.515	0.000	-4.686	-0.000	0.000
7545	7485	7486	7487	3	1.172	3.515	0.000	-4.686	-0.000	0.000
7548	7487	7486	7485	3	1.172	3.515	0.000	-4.686	-0.000	0.000
7546	7485	7486	7487	3	1.172	3.515	0.000	-4.686	-0.000	0.000
7544	7485	7486	7487	3	1.172	3.515	0.000	-4.686	-0.000	0.000
7549	7488	7489	7490	3	1.590	4.770	0.000	-6.360	-0.000	0.000
7550	7488	7489	7490	3	1.590	4.770	0.000	-6.360	-0.000	0.000
7555	7498	7497	7499	3	0.0	0.0	0.0	-0.0	-0.0	0.0
7555	7498	7497	7496	3	0.0	0.0	0.0	-0.0	-0.0	0.0
7498	7497	7496	7495	3	0.0	0.0	0.0	-0.0	-0.0	0.0
7525	7526	7515	7514	3	2.874	0.582	2.092	-5.548	-0.000	0.000
7525	7526	7515	7516	3	1.046	-1.046	0.000	-0.000	-0.000	0.000
7489	7488	7487	7486	3	16.736	-16.736	0.000	-0.000	-0.000	0.000
7525	7519	7516	7515	3	1.046	-1.046	0.000	-0.000	-0.000	0.000
7525	7519	7516	7517	3	9.079	0.000	-9.079	-0.000	-0.000	0.000
7594	7593	7592	7591	3	30.334	0.000	-30.334	-0.000	-0.000	0.000
7593	7601	7602	7590	3	30.334	0.000	-30.334	-0.000	-0.000	0.000
7593	7592	7591	7590	3	30.334	0.000	-30.334	-0.000	-0.000	0.000
7614	7613	7612	7611	3	21.738	2.408	-16.966	-7.180	-0.000	0.000
7610	7609	7608	7607	3	21.738	2.408	-16.966	-7.180	-0.000	0.000
7611	7610	7609	7608	3	21.738	2.408	-16.966	-7.180	-0.000	0.000
7612	7611	7610	7609	3	21.738	2.408	-16.966	-7.180	-0.000	0.000
7613	7612	7611	7610	3	21.738	2.408	-16.966	-7.180	-0.000	0.000
7609	7608	7607	7606	3	58.576	0.000	-58.576	-0.000	-0.000	0.000
7608	7607	7606	7605	3	16.027	-4.391	-14.029	2.393	-0.000	0.000
7607	7606	7605	7604	3	30.334	0.000	-30.334	-0.000	-0.000	0.000
7616	7615	7614	7613	3	58.576	0.000	-58.576	-0.000	-0.000	0.000
7601	7593	7594	7600	3	9.079	0.000	-9.079	-0.000	-0.000	0.000
7600	7594	7593	7592	3	9.079	0.000	-9.079	-0.000	-0.000	0.000
7601	7593	7594	7595	3	9.079	0.000	-9.079	-0.000	-0.000	0.000
7595	7594	7593	7592	3	9.079	0.000	-9.079	-0.000	-0.000	0.000
7600	7594	7595	7596	3	30.334	0.000	-30.334	-0.000	-0.000	0.000
7601	7593	7592	7591	3	30.334	0.000	-30.334	-0.000	-0.000	0.000
7599	7600	7594	7593	3	30.334	0.000	-30.334	-0.000	-0.000	0.000
7602	7601	7593	7594	3	30.334	0.000	-30.334	-0.000	-0.000	0.000
7596	7595	7594	7593	3	30.334	0.000	-30.334	-0.000	-0.000	0.000
7599	7600	7594	7595	3	30.334	0.000	-30.334	-0.000	-0.000	0.000
7602	7601	7593	7592	3	30.334	0.000	-30.334	-0.000	-0.000	0.000
7642	7606	7607	7608	3	16.027	-4.391	-14.029	2.393	-0.000	0.000
7597	7599	7600	7594	3	30.334	0.000	-30.334	-0.000	-0.000	0.000
7597	7596	7595	7594	3	30.334	0.000	-30.334	-0.000	-0.000	0.000
7643	7642	7606	7607	3	30.334	0.000	-30.334	-0.000	-0.000	0.000
7632	7627	7628	7629	3	30.334	0.000	-30.334	-0.000	-0.000	0.000
7643	7642	7606	7605	3	30.334	0.000	-30.334	-0.000	-0.000	0.000
7602	7590	7591	7592	3	30.334	0.000	-30.334	-0.000	-0.000	0.000
7642	7643	7603	7604	3	30.334	0.000	-30.334	-0.000	-0.000	0.000
7632	7631	7630	7629	3	30.334	0.000	-30.334	-0.000	-0.000	0.000
7631	7630	7629	7628	3	30.334	0.000	-30.334	-0.000	-0.000	0.000
7630	7629	7628	7627	3	30.334	0.000	-30.334	-0.000	-0.000	0.000
7606	7605	7604	7603	3	30.334	0.000	-30.334	-0.000	-0.000	0.000
7606	7642	7643	7603	3	30.334	0.000	-30.334	-0.000	-0.000	0.000
7643	7603	7604	7605	3	30.334	0.000	-30.334	-0.000	-0.000	0.000
7642	7606	7605	7604	3	30.334	0.000	-30.334	-0.000	-0.000	0.000
7631	7632	7627	7628	3	30.334	0.000	-30.334	-0.000	-0.000	0.000
7600	7599	7597	7596	3	30.334	0.000	-30.334	-0.000	-0.000	0.000
7601	7602	7590	7591	3	30.334	0.000	-30.334	-0.000	-0.000	0.000
7630	7631	7632	7627	3	30.334	0.000	-30.334	-0.000	-0.000	0.000
7599	7597	7596	7595	3	30.334	0.000	-30.334	-0.000	-0.000	0.000
7631	7632	7627	7626	3	30.334	0.000	-30.334	-0.000	-0.000	0.000
7629	7628	7627	7626	3	30.334	0.000	-30.334	-0.000	-0.000	0.000
7642	7643	7603	7586	3	30.334	0.000	-30.334	-0.000	-0.000	0.000
7605	7604	7603	7586	3	30.334	0.000	-30.334	-0.000	-0.000	0.000
7600	7599	7597	7598	3	0.0	0.0	0.0	-0.0	-0.0	0.0
7592	7591	7590	7589	3	30.334	0.000	-30.334	-0.000	-0.000	0.000
7601	7602	7590	7589	3	30.334	0.000	-30.334	-0.000	-0.000	0.000
7632	7627	7626	7615	3	0.000	0.000	0.000	-0.000	-0.000	0.000
7628	7627	7626	7615	3	0.000	0.000	0.000	-0.000	-0.000	0.000
7632	7627	7626	7625	3	0.000	0.000	0.000	-0.000	-0.000	0.000
7628	7627	7626	7625	3	0.000	0.000	0.000	-0.000	-0.000	0.000
7643	7603	7586	7587	3	5.184	35.932	-14.355	-26.761	-0.000	0.000
7604	7603	7586	7587	3	5.184	35.932	-14.355	-26.761	-0.000	0.000
7604	7603	7586	7585	3	5.184	35.932	-14.355	-26.761	-0.000	0.000
7643	7603	7586	7585	3	5.184	35.932	-14.355	-26.761	-0.000	0.000
7591	7590	7589	7588	3	12.552	0.000	-12.552	-0.000	-0.000	0.000
7602	7590	7589	7588	3	12.552	0.000	-12.552	-0.000	-0.000	0.000
7627	7626	7615	7614	3	6.322	-2.485	0.707	-4.544	-0.000	0.000
7627	7626	7615	7616	3	0.527	-6.397	-1.695	7.565	-0.000	0.000
7627	7626	7625	7619	3	1.715	2.845	1.046	-5.607	-0.000	0.000
7603	7586	7587	7588	3	1.789	3.492	0.536	-5.816	-0.000	0.000
7590	7589	7588	7587	3	1.715	2.845	1.046	-5.607	-0.000	0.000
7633	7626	7627	7628	3	0.000	0.000	0.000	-0.000	-0.000	0.000
7633	7626	7627	7632	3	0.000	0.000	0.000	-0.000	-0.000	0.000
7633	7626	7615	7614	3	6.322	-2.485	0.707	-4.544	-0.000	0.000
7633	7626	7615	7616	3	0.527	-6.397	-1.695	7.565	-0.000	0.000
7633	7626	7625	7619	3	1.715	2.845	1.046	-5.607	-0.000	0.000
7615	7614	7613	7612	3	21.738	2.408	-16.966	-7.180	-0.000	0.000
7620	7619	7616	7615	3	21.738	2.408	-16.966	-7.180	-0.000	0.000
7620	7619	7616	7617	3	-0.778	-2.335	0.000	3.113	-0.000	0.000
7641	7609	7608	7607	3	58.576	0.000	-58.576	-0.000	-0.000	0.000
7637	7611	7610	7609	3	58.576	0.000	-58.576	-0.000	-0.000	0.000
7641	7609	7610	7611	3	58.576	0.000	-58.576	-0.000	-0.000	0.000
7637	7611	7612	7613	3	58.576	0.000	-58.576	-0.000	-0.000	0.000
7626	7615	7614	7613	3	-0.778	-2.335	0.000	3.113	-0.000	0.000
7626	7615	7616	7619	3	58.576	0.000	-58.576	-0.000	-0.000	0.000
7626	7615	7616	7617	3	58.576	0.000	-58.576	-0.000	-0.000	0.000
7638	7641	7609	7608	3	0.527	-6.397	-1.695	7.565	-0.000	0.000
7638	7637	7611	7612	3	0.527	-6.397	-1.695	7.565	-0.000	0.000
7638	7637	7611	7610	3	0.527	-6.397	-1.695	7.565	-0.000	0.000
7638	7641	7609	7610	3	0.527	-6.397	-1.695	7.565	-0.000	0.000
7641	7638	7637	7611	3	2.301	-1.464	0.837	-1.674	-0.000	0.000
7640	7638	7641	7609	3	2.301	-1.464	0.837	-1.674	-0.000	0.000
7637	7638	7641	7609	3	2.301	-1.464	0.837	-1.674	-0.000	0.000
7639	7638	7641	7609	3	2.301	-1.464	0.837	-1.674	-0.000	0.000
7640	7638	7637	7611	3	2.301	-1.464	0.837	-1.674	-0.000	0.000
7639	7638	7637	7611	3	2.301	-1.464	0.837	-1.674	-0.000	0.000
7588	7587	7586	7585	3	1.789	3.492	0.536	-5.816	-0.000	0.000
7626	7625	7619	7616	3	30.334	0.000	-30.334	-0.000	-0.000	0.000
7626	7625	7619	7620	3	30.334	0.000	-30.334	-0.000	-0.000	0.000
7619	7616	7615	7614	3	58.576	0.000	-58.576	-0.000	-0.000	0.000
7619	7625	7626	7615	3	1.715	2.845	1.046	-5.607	-0.000	0.000
7617	7616	7615	7614	3	58.576	0.000	-58.576	-0.000	-0.000	0.000
7621	7620	7619	7616	3	58.576	0.000	-58.576	-0.000	-0.000	0.000
7623	7620	7619	7616	3	58.576	0.000	-58.576	-0.000	-0.000	0.000
7634	7633	7626	7627	3	0.000	0.000	0.000	-0.000	-0.000	0.000
7635	7633	7626	7627	3	0.000	0.000	0.000	-0.000	-0.000	0.000
7636	7633	7626	7627	3	0.000	0.000	0.000	-0.000	-0.000	0.000
7635	7633	7626	7615	3	0.000	0.000	0.000	-0.000	-0.000	0.000
7634	7633	7626	7615	3	0.000	0.000	0.000	-0.000	-0.000	0.000
7636	7633	7626	7615	3	0.000	0.000	0.000	-0.000	-0.000	0.000
7635	7633	7626	7625	3	1.130	3.389	0.000	-4.519	-0.000	0.000
7636	7633	7626	7625	3	1.130	3.389	0.000	-4.519	-0.000	0.000
7634	7633	7626	7625	3	1.130	3.389	0.000	-4.519	-0.000	0.000
7664	7610	7609	7608	3	58.576	0.000	-58.576	-0.000	-0.000	0.000
7664	7610	7611	7612	3	58.576	0.000	-58.576	-0.000	-0.000	0.000
7664	7610	7611	7637	3	58.576	0.000	-58.576	-0.000	-0.000	0.000
7664	7610	7609	7641	3	58.576	0.000	-58.576	-0.000	-0.000	0.000
7653	7595	7594	7593	3	30.334	0.000	-30.334	-0.000	-0.000	0.000
7652	7592	7593	7594	3	30.334	0.000	-30.334	-0.000	-0.000	0.000
7658	7601	7593	7594	3	30.334	0.000	-30.334	-0.000	-0.000	0.000
7657	7600	7594	7593	3	30.334	0.000	-30.334	-0.000	-0.000	0.000
7657	7600	7594	7595	3	30.334	0.000	-30.334	-0.000	-0.000	0.000
7653	7595	7594	7600	3	30.334	0.000	-30.334	-0.000	-0.000	0.000
7652	7592	7593	7601	3	30.334	0.000	-30.334	-0.000	-0.000	0.000
7658	7601	7593	7592	3	30.334	0.000	-30.334	-0.000	-0.000	0.000
7651	7591	7592	7593	3	30.334	0.000	-30.334	-0.000	-0.000	0.000
7659	7602	7601	7593	3	30.334	0.000	-30.334	-0.000	-0.000	0.000
7654	7596	7595	7594	3	30.334	0.000	-30.334	-0.000	-0.000	0.000
7656	7599	7600	7594	3	30.334	0.000	-30.334	-0.000	-0.000	0.000
7661	7605	7606	7607	3	30.334	0.000	-30.334	-0.000	-0.000	0.000
7683	7642	7606	7607	3	30.334	0.000	-30.334	-0.000	-0.000	0.000
7668	7628	7629	7630	3	30.334	0.000	-30.334	-0.000	-0.000	0.000
7656	7599	7597	7596	3	30.334	0.000	-30.334	-0.000	-0.000	0.000
7671	7631	7630	7629	3	30.334	0.000	-30.334	-0.000	-0.000	0.000
7683	7642	7643	7603	3	30.334	0.000	-30.334	-0.000	-0.000	0.000
7669	7629	7628	7627	3	30.334	0.000	-30.334	-0.000	-0.000	0.000
7684	7643	7642	7606	3	30.334	0.000	-30.334	-0.000	-0.000	0.000
7670	7630	7629	7628	3	30.334	0.000	-30.334	-0.000	-0.000	0.000
7659	7602	7590	7591	3	30.334	0.000	-30.334	-0.000	-0.000	0.000
7658	7601	7602	7590	3	30.334	0.000	-30.334	-0.000	-0.000	0.000
7683	7642	7606	7605	3	30.334	0.000	-30.334	-0.000	-0.000	0.000
7684	7643	7603	7604	3	30.334	0.000	-30.334	-0.000	-0.000	0.000
7671	7631	7632	7627	3	30.334	0.000	-30.334	-0.000	-0.000	0.000
7668	7628	7627	7632	3	30.334	0.000	-30.334	-0.000	-0.000	0.000
7653	7595	7596	7597	3	30.334	0.000	-30.334	-0.000	-0.000	0.000
7654	7596	7597	7599	3	30.334	0.000	-30.334	-0.000	-0.000	0.000
7651	7591	7590	7602	3	30.334	0.000	-30.334	-0.000	-0.000	0.000
7660	7604	7603	7643	3	30.334	0.000	-30.334	-0.000	-0.000	0.000
7660	7604	7605	7606	3	30.334	0.000	-30.334	-0.000	-0.000	0.000
7657	7600	7599	7597	3	30.334	0.000	-30.334	-0.000	-0.000	0.000
7661	7605	7606	7642	3	30.334	0.000	-30.334	-0.000	-0.000	0.000
7670	7630	7631	7632	3	30.334	0.000	-30.334	-0.000	-0.000	0.000
7672	7632	7631	7630	3	30.334	0.000	-30.334	-0.000	-0.000	0.000
7669	7629	7630	7631	3	30.334	0.000	-30.334	-0.000	-0.000	0.000
7672	7632	7627	7628	3	30.334	0.000	-30.334	-0.000	-0.000	0.000
7652	7592	7591	7590	3	30.334	0.000	-30.334	-0.000	-0.000	0.000
7661	7605	7604	7603	3	30.334	0.000	-30.334	-0.000	-0.000	0.000
7672	7632	7627	7626	3	30.334	0.000	-30.334	-0.000	-0.000	0.000
7668	7628	7627	7626	3	30.334	0.000	-30.334	-0.000	-0.000	0.000
7661	7605	7604	7660	3	30.334	0.000	-30.334	-0.000	-0.000	0.000
7684	7643	7642	7683	3	30.334	0.000	-30.334	-0.000	-0.000	0.000
7670	7630	7629	7669	3	30.334	0.000	-30.334	-0.000	-0.000	0.000
7654	7596	7595	7653	3	30.334	0.000	-30.334	-0.000	-0.000	0.000
7659	7602	7601	7658	3	30.334	0.000	-30.334	-0.000	-0.000	0.000
7657	7600	7599	7656	3	30.334	0.000	-30.334	-0.000	-0.000	0.000
7669	7629	7628	7668	3	30.334	0.000	-30.334	-0.000	-0.000	0.000
7652	7592	7591	7651	3	30.334	0.000	-30.334	-0.000	-0.000	0.000
7671	7631	7630	7670	3	30.334	0.000	-30.334	-0.000	-0.000	0.000
7672	7632	7631	7671	3	30.334	0.000	-30.334	-0.000	-0.000	0.000
7684	7643	7603	7586	3	30.334	0.000	-30.334	-0.000	-0.000	0.000
7660	7604	7603	7586	3	30.334	0.000	-30.334	-0.000	-0.000	0.000
7654	7596	7597	7598	3	0.0	0.0	0.0	-0.0	-0.0	0.0
7656	7599	7597	7598	3	0.0	0.0	0.0	-0.0	-0.0	0.0
7651	7591	7590	7589	3	30.334	0.000	-30.334	-0.000	-0.000	0.000
7659	7602	7590	7589	3	30.334	0.000	-30.334	-0.000	-0.000	0.000
7665	7612	7611	7610	3	58.576	0.000	-58.576	-0.000	-0.000	0.000
7665	7612	7613	7614	3	58.576	0.000	-58.576	-0.000	-0.000	0.000
7667	7614	7613	7612	3	58.576	0.000	-58.576	-0.000	-0.000	0.000
7666	7613	7612	7611	3	58.576	0.000	-58.576	-0.000	-0.000	0.000
7663	7608	7609	7610	3	58.576	0.000	-58.576	-0.000	-0.000	0.000
7662	7607	7608	7609	3	58.576	0.000	-58.576	-0.000	-0.000	0.000
7663	7608	7607	7606	3	58.576	0.000	-58.576	-0.000	-0.000	0.000
7666	7613	7614	7615	3	58.576	0.000	-58.576	-0.000	-0.000	0.000
7665	7612	7611	7637	3	58.576	0.000	-58.576	-0.000	-0.000	0.000
7663	7608	7609	7641	3	58.576	0.000	-58.576	-0.000	-0.000	0.000
7663	7608	7607	7662	3	58.576	0.000	-58.576	-0.000	-0.000	0.000
7666	7613	7612	7665	3	58.576	0.000	-58.576	-0.000	-0.000	0.000
7667	7614	7613	7666	3	58.576	0.000	-58.576	-0.000	-0.000	0.000
7662	7607	7606	7642	3	-0.778	-2.335	0.000	3.113	-0.000	0.000
7662	7607	7606	7605	3	-0.778	-2.335	0.000	3.113	-0.000	0.000
7667	7614	7615	7616	3	58.576	0.000	-58.576	-0.000	-0.000	0.000
7667	7614	7615	7626	3	58.576	0.000	-58.576	-0.000	-0.000	0.000
7681	7641	7609	7608	3	-0.778	-2.335	0.000	3.113	-0.000	0.000
7681	7641	7609	7610	3	-0.778	-2.335	0.000	3.113	-0.000	0.000
7682	7641	7609	7608	3	-0.778	-2.335	0.000	3.113	-0.000	0.000
7674	7637	7611	7612	3	-0.778	-2.335	0.000	3.113	-0.000	0.000
7682	7641	7609	7610	3	-0.778	-2.335	0.000	3.113	-0.000	0.000
7673	7637	7611	7610	3	-0.778	-2.335	0.000	3.113	-0.000	0.000
7674	7637	7611	7610	3	-0.778	-2.335	0.000	3.113	-0.000	0.000
7673	7637	7611	7612	3	-0.778	-2.335	0.000	3.113	-0.000	0.000
7676	7639	7638	7641	3	0.628	1.883	0.000	-2.510	-0.000	0.000
7675	7639	7638	7640	3	0.628	1.883	0.000	-2.510	-0.000	0.000
7675	7639	7638	7637	3	0.628	1.883	0.000	-2.510	-0.000	0.000
7677	7639	7638	7640	3	0.628	1.883	0.000	-2.510	-0.000	0.000
7679	7640	7638	7637	3	0.628	1.883	0.000	-2.510	-0.000	0.000
7678	7640	7638	7637	3	0.628	1.883	0.000	-2.510	-0.000	0.000
7677	7639	7638	7637	3	0.628	1.883	0.000	-2.510	-0.000	0.000
7679	7640	7638	7639	3	0.628	1.883	0.000	-2.510	-0.000	0.000
7676	7639	7638	7637	3	0.628	1.883	0.000	-2.510	-0.000	0.000
7681	7641	7638	7637	3	0.628	1.883	0.000	-2.510	-0.000	0.000
7681	7641	7638	7639	3	0.628	1.883	0.000	-2.510	-0.000	0.000
7674	7637	7638	7639	3	0.628	1.883	0.000	-2.510	-0.000	0.000
7677	7639	7638	7641	3	0.628	1.883	0.000	-2.510	-0.000	0.000
7674	7637	7638	7640	3	0.628	1.883	0.000	-2.510	-0.000	0.000
7682	7641	7638	7639	3	0.628	1.883	0.000	-2.510	-0.000	0.000
7678	7640	7638	7641	3	0.628	1.883	0.000	-2.510	-0.000	0.000
7679	7640	7638	7641	3	0.628	1.883	0.000	-2.510	-0.000	0.000
7680	7640	7638	7637	3	0.628	1.883	0.000	-2.510	-0.000	0.000
7673	7637	7638	7640	3	0.628	1.883	0.000	-2.510	-0.000	0.000
7673	7637	7638	7639	3	0.628	1.883	0.000	-2.510	-0.000	0.000
7678	7640	7638	7639	3	0.628	1.883	0.000	-2.510	-0.000	0.000
7674	7637	7638	7641	3	0.628	1.883	0.000	-2.510	-0.000	0.000
7682	7641	7638	7640	3	0.628	1.883	0.000	-2.510	-0.000	0.000
7676	7639	7638	7640	3	0.628	1.883	0.000	-2.510	-0.000	0.000
7675	7639	7638	7641	3	0.628	1.883	0.000	-2.510	-0.000	0.000
7682	7641	7638	7637	3	0.628	1.883	0.000	-2.510	-0.000	0.000
7673	7637	7638	7641	3	0.628	1.883	0.000	-2.510	-0.000	0.000
7680	7640	7638	7639	3	0.628	1.883	0.000	-2.510	-0.000	0.000
7681	7641	7638	7640	3	0.628	1.883	0.000	-2.510	-0.000	0.000
7680	7640	7638	7641	3	0.628	1.883	0.000	-2.510	-0.000	0.000
7649	7588	7587	7648	3	0.628	1.883	0.000	-2.510	-0.000	0.000
7650	7588	7587	7647	3	0.628	1.883	0.000	-2.510	-0.000	0.000
7649	7588	7587	7647	3	0.628	1.883	0.000	-2.510	-0.000	0.000
7650	7588	7587	7648	3	0.628	1.883	0.000	-2.510	-0.000	0.000
7650	7588	7587	7586	3	-4.096	5.088	2.966	-3.958	-0.000	0.000
7649	7588	7587	7586	3	-4.096	5.088	2.966	-3.958	-0.000	0.000
7648	7587	7588	7589	3	0.979	2.937	0.000	-3.916	-0.000	0.000
7647	7587	7588	7589	3	0.979	2.937	0.000	-3.916	-0.000	0.000
7648	7587	7586	7603	3	1.172	3.515	0.000	-4.686	-0.000	0.000
7644	7585	7586	7603	3	1.172	3.515	0.000	-4.686	-0.000	0.000
7647	7587	7586	7603	3	1.172	3.515	0.000	-4.686	-0.000	0.000
7645	7585	7586	7603	3	1.172	3.515	0.000	-4.686	-0.000	0.000
7646	7585	7586	7603	3	1.172	3.515	0.000	-4.686	-0.000	0.000
7647	7587	7586	7585	3	1.172	3.515	0.000	-4.686	-0.000	0.000
7645	7585	7586	7587	3	1.172	3.515	0.000	-4.686	-0.000	0.000
7648	7587	7586	7585	3	1.172	3.515	0.000	-4.686	-0.000	0.000
7646	7585	7586	7587	3	1.172	3.515	0.000	-4.686	-0.000	0.000
7644	7585	7586	7587	3	1.172	3.515	0.000	-4.686	-0.000	0.000
7649	7588	7589	7590	3	1.590	4.770	0.000	-6.360	-0.000	0.000
7650	7588	7589	7590	3	1.590	4.770	0.000	-6.360	-0.000	0.000
7655	7598	7597	7599	3	0.0	0.0	0.0	-0.0	-0.0	0.0
7655	7598	7597	7596	3	0.0	0.0	0.0	-0.0	-0.0	0.0
7598	7597	7596	7595	3	0.0	0.0	0.0	-0.0	-0.0	0.0
7625	7626	7615	7614	3	2.874	0.582	2.092	-5.548	-0.000	0.000
7625	7626	7615	7616	3	1.046	-1.046	0.000	-0.000	-0.000	0.000
7589	7588	7587	7586	3	16.736	-16.736	0.000	-0.000	-0.000	0.000
7625	7619	7616	7615	3	1.046	-1.046	0.000	-0.000	-0.000	0.000
7625	7619	7616	7617	3	9.079	0.000	-9.079	-0.000	-0.000	0.000
7694	7693	7692	7691	3	30.334	0.000	-30.334	-0.000	-0.000	0.000
7693	7701	7702	7690	3	30.334	0.000	-30.334	-0.000	-0.000	0.000
7693	7692	7691	7690	3	30.334	0.000	-30.334	-0.000	-0.000	0.000
7714	7713	7712	7711	3	21.738	2.408	-16.966	-7.180	-0.000	0.000
7710	7709	7708	7707	3	21.738	2.408	-16.966	-7.180	-0.000	0.000
7711	7710	7709	7708	3	21.738	2.408	-16.966	-7.180	-0.000	0.000
7712	7711	7710	7709	3	21.738	2.408	-16.966	-7.180	-0.000	0.000
7713	7712	7711	7710	3	21.738	2.408	-16.966	-7.180	-0.000	0.000
7709	7708	7707	7706	3	58.576	0.000	-58.576	-0.000	-0.000	0.000
7708	7707	7706	7705	3	16.027	-4.391	-14.029	2.393	-0.000	0.000
7707	7706	7705	7704	3	30.334	0.000	-30.334	-0.000	-0.000	0.000
7716	7715	7714	7713	3	58.576	0.000	-58.576	-0.000	-0.000	0.000
7701	7693	7694	7700	3	9.079	0.000	-9.079	-0.000	-0.000	0.000
7700	7694	7693	7692	3	9.079	0.000	-9.079	-0.000	-0.000	0.000
7701	7693	7694	7695	3	9.079	0.000	-9.079	-0.000	-0.000	0.000
7695	7694	7693	7692	3	9.079	0.000	-9.079	-0.000	-0.000	0.000
7700	7694	7695	7696	3	30.334	0.000	-30.334	-0.000	-0.000	0.000
7701	7693	7692	7691	3	30.334	0.000	-30.334	-0.000	-0.000	0.000
7699	7700	7694	7693	3	30.334	0.000	-30.334	-0.000	-0.000	0.000
7702	7701	7693	7694	3	30.334	0.000	-30.334	-0.000	-0.000	0.000
7696	7695	7694	7693	3	30.334	0.000	-30.334	-0.000	-0.000	0.000
7699	7700	7694	7695	3	30.334	0.000	-30.334	-0.000	-0.000	0.000
7702	7701	7693	7692	3	30.334	0.000	-30.334	-0.000	-0.000	0.000
7742	7706	7707	7708	3	16.027	-4.391	-14.029	2.393	-0.000	0.000
7697	7699	7700	7694	3	30.334	0.000	-30.334	-0.000	-0.000	0.000
7697	7696	7695	7694	3	30.334	0.000	-30.334	-0.000	-0.000	0.000
7743	7742	7706	7707	3	30.334	0.000	-30.334	-0.000	-0.000	0.000
7732	7727	7728	7729	3	30.334	0.000	-30.334	-0.000	-0.000	0.000
7743	7742	7706	7705	3	30.334	0.000	-30.334	-0.000	-0.000	0.000
7702	7690	7691	7692	3	30.334	0.000	-30.334	-0.000	-0.000	0.000
7742	7743	7703	7704	3	30.334	0.000	-30.334	-0.000	-0.000	0.000
7732	7731	7730	7729	3	30.334	0.000	-30.334	-0.000	-0.000	0.000
7731	7730	7729	7728	3	30.334	0.000	-30.334	-0.000	-0.000	0.000
7730	7729	7728	7727	3	30.334	0.000	-30.334	-0.000	-0.000	0.000
7706	7705	7704	7703	3	30.334	0.000	-30.334	-0.000	-0.000	0.000
7706	7742	7743	7703	3	30.334	0.000	-30.334	-0.000	-0.000	0.000
7743	7703	7704	7705	3	30.334	0.000	-30.334	-0.000	-0.000	0.000
7742	7706	7705	7704	3	30.334	0.000	-30.334	-0.000	-0.000	0.000
7731	7732	7727	7728	3	30.334	0.000	-30.334	-0.000	-0.000	0.000
7700	7699	7697	7696	3	30.334	0.000	-30.334	-0.000	-0.000	0.000
7701	7702	7690	7691	3	30.334	0.000	-30.334	-0.000	-0.000	0.000
7730	7731	7732	7727	3	30.334	0.000	-30.334	-0.000	-0.000	0.000
7699	7697	7696	7695	3	30.334	0.000	-30.334	-0.000	-0.000	0.000
7731	7732	7727	7726	3	30.334	0.000	-30.334	-0.000	-0.000	0.000
7729	7728	7727	7726	3	30.334	0.000	-30.334	-0.000	-0.000	0.000
7742	7743	7703	7686	3	30.334	0.000	-30.334	-0.000	-0.000	0.000
7705	7704	7703	7686	3	30.334	0.000	-30.334	-0.000	-0.000	0.000
7700	7699	7697	7698	3	0.0	0.0	0.0	-0.0	-0.0	0.0
7692	7691	7690	7689	3	30.334	0.000	-30.334	-0.000	-0.000	0.000
7701	7702	7690	7689	3	30.334	0.000	-30.334	-0.000	-0.000	0.000
7732	7727	7726	7715	3	0.000	0.000	0.000	-0.000	-0.000	0.000
7728	7727	7726	7715	3	0.000	0.000	0.000	-0.000	-0.000	0.000
7732	7727	7726	7725	3	0.000	0.000	0.000	-0.000	-0.000	0.000
7728	7727	7726	7725	3	0.000	0.000	0.000	-0.000	-0.000	0.000
7743	7703	7686	7687	3	5.184	35.932	-14.355	-26.761	-0.000	0.000
7704	7703	7686	7687	3	5.184	35.932	-14.355	-26.761	-0.000	0.000
7704	7703	7686	7685	3	5.184	35.932	-14.355	-26.761	-0.000	0.000
7743	7703	7686	7685	3	5.184	35.932	-14.355	-26.761	-0.000	0.000
7691	7690	7689	7688	3	12.552	0.000	-12.552	-0.000	-0.000	0.000
7702	7690	7689	7688	3	12.552	0.000	-12.552	-0.000	-0.000	0.000
7727	7726	7715	7714	3	6.322	-2.485	0.707	-4.544	-0.000	0.000
7727	7726	7715	7716	3	0.527	-6.397	-1.695	7.565	-0.000	0.000
7727	7726	7725	7719	3	1.715	2.845	1.046	-5.607	-0.000	0.000
7703	7686	7687	7688	3	1.789	3.492	0.536	-5.816	-0.000	0.000
7690	7689	7688	7687	3	1.715	2.845	1.046	-5.607	-0.000	0.000
7733	7726	7727	7728	3	0.000	0.000	0.000	-0.000	-0.000	0.000
7733	7726	7727	7732	3	0.000	0.000	0.000	-0.000	-0.000	0.000
7733	7726	7715	7714	3	6.322	-2.485	0.707	-4.544	-0.000	0.000
7733	7726	7715	7716	3	0.527	-6.397	-1.695	7.565	-0.000	0.000
7733	7726	7725	7719	3	1.715	2.845	1.046	-5.607	-0.000	0.000
7715	7714	7713	7712	3	21.738	2.408	-16.966	-7.180	-0.000	0.000
7720	7719	7716	7715	3	21.738	2.408	-16.966	-7.180	-0.000	0.000
7720	7719	7716	7717	3	-0.778	-2.335	0.000	3.113	-0.000	0.000
7741	7709	7708	7707	3	58.576	0.000	-58.576	-0.000	-0.000	0.000
7737	7711	7710	7709	3	58.576	0.000	-58.576	-0.000	-0.000	0.000
7741	7709	7710	7711	3	58.576	0.000	-58.576	-0.000	-0.000	0.000
7737	7711	7712	7713	3	58.576	0.000	-58.576	-0.000	-0.000	0.000
7726	7715	7714	7713	3	-0.778	-2.335	0.000	3.113	-0.000	0.000
7726	7715	7716	7719	3	58.576	0.000	-58.576	-0.000	-0.000	0.000
7726	7715	7716	7717	3	58.576	0.000	-58.576	-0.000	-0.000	0.000
7738	7741	7709	7708	3	0.527	-6.397	-1.695	7.565	-0.000	0.000
7738	7737	7711	7712	3	0.527	-6.397	-1.695	7.565	-0.000	0.000
7738	7737	7711	7710	3	0.527	-6.397	-1.695	7.565	-0.000	0.000
7738	7741	7709	7710	3	0.527	-6.397	-1.695	7.565	-0.000	0.000
7741	7738	7737	7711	3	2.301	-1.464	0.837	-1.674	-0.000	0.000
7740	7738	7741	7709	3	2.301	-1.464	0.837	-1.674	-0.000	0.000
7737	7738	7741	7709	3	2.301	-1.464	0.837	-1.674	-0.000	0.000
7739	7738	7741	7709	3	2.301	-1.464	0.837	-1.674	-0.000	0.000
7740	7738	7737	7711	3	2.301	-1.464	0.837	-1.674	-0.000	0.000
7739	7738	7737	7711	3	2.301	-1.464	0.837	-1.674	-0.000	0.000
7688	7687	7686	7685	3	1.789	3.492	0.536	-5.816	-0.000	0.000
7726	7725	7719	7716	3	30.334	0.000	-30.334	-0.000	-0.000	0.000
7726	7725	7719	7720	3	30.334	0.000	-30.334	-0.000	-0.000	0.000
7719	7716	7715	7714	3	58.576	0.000	-58.576	-0.000	-0.000	0.000
7719	7725	7726	7715	3	1.715	2.845	1.046	-5.607	-0.000	0.000
7717	7716	7715	7714	3	58.576	0.000	-58.576	-0.000	-0.000	0.000
7721	7720	7719	7716	3	58.576	0.000	-58.576	-0.000	-0.000	0.000
7723	7720	7719	7716	3	58.576	0.000	-58.576	-0.000	-0.000	0.000
7734	7733	7726	7727	3	0.000	0.000	0.000	-0.000	-0.000	0.000
7735	7733	7726	7727	3	0.000	0.000	0.000	-0.000	-0.000	0.000
7736	7733	7726	7727	3	0.000	0.000	0.000	-0.000	-0.000	0.000
7735	7733	7726	7715	3	0.000	0.000	0.000	-0.000	-0.000	0.000
7734	7733	7726	7715	3	0.000	0.000	0.000	-0.000	-0.000	0.000
7736	7733	7726	7715	3	0.000	0.000	0.000	-0.000	-0.000	0.000
7735	7733	7726	7725	3	1.130	3.389	0.000	-4.519	-0.000	0.000
7736	7733	7726	7725	3	1.130	3.389	0.000	-4.519	-0.000	0.000
7734	7733	7726	7725	3	1.130	3.389	0.000	-4.519	-0.000	0.000
7764	7710	7709	7708	3	58.576	0.000	-58.576	-0.000	-0.000	0.000
7764	7710	7711	7712	3	58.576	0.000	-58.576	-0.000	-0.000	0.000
7764	7710	7711	7737	3	58.576	0.000	-58.576	-0.000	-0.000	0.000
7764	7710	7709	7741	3	58.576	0.000	-58.576	-0.000	-0.000	0.000
7753	7695	7694	7693	3	30.334	0.000	-30.334	-0.000	-0.000	0.000
7752	7692	7693	7694	3	30.334	0.000	-30.334	-0.000	-0.000	0.000
7758	7701	7693	7694	3	30.334	0.000	-30.334	-0.000	-0.000	0.000
7757	7700	7694	7693	3	30.334	0.000	-30.334	-0.000	-0.000	0.000
7757	7700	7694	7695	3	30.334	0.000	-30.334	-0.000	-0.000	0.000
7753	7695	7694	7700	3	30.334	0.000	-30.334	-0.000	-0.000	0.000
7752	7692	7693	7701	3	30.334	0.000	-30.334	-0.000	-0.000	0.000
7758	7701	7693	7692	3	30.334	0.000	-30.334	-0.000	-0.000	0.000
7751	7691	7692	7693	3	30.334	0.000	-30.334	-0.000	-0.000	0.000
7759	7702	7701	7693	3	30.334	0.000	-30.334	-0.000	-0.000	0.000
7754	7696	7695	7694	3	30.334	0.000	-30.334	-0.000	-0.000	0.000
7756	7699	7700	7694	3	30.334	0.000	-30.334	-0.000	-0.000	0.000
7761	7705	7706	7707	3	30.334	0.000	-30.334	-0.000	-0.000	0.000
7783	7742	7706	7707	3	30.334	0.000	-30.334	-0.000	-0.000	0.000
7768	7728	7729	7730	3	30.334	0.000	-30.334	-0.000	-0.000	0.000
7756	7699	7697	7696	3	30.334	0.000	-30.334	-0.000	-0.000	0.000
7771	7731	7730	7729	3	30.334	0.000	-30.334	-0.000	-0.000	0.000
7783	7742	7743	7703	3	30.334	0.000	-30.334	-0.000	-0.000	0.000
7769	7729	7728	7727	3	30.334	0.000	-30.334	-0.000	-0.000	0.000
7784	7743	7742	7706	3	30.334	0.000	-30.334	-0.000	-0.000	0.000
7770	7730	7729	7728	3	30.334	0.000	-30.334	-0.000	-0.000	0.000
7759	7702	7690	7691	3	30.334	0.000	-30.334	-0.000	-0.000	0.000
7758	7701	7702	7690	3	30.334	0.000	-30.334	-0.000	-0.000	0.000
7783	7742	7706	7705	3	30.334	0.000	-30.334	-0.000	-0.000	0.000
7784	7743	7703	7704	3	30.334	0.000	-30.334	-0.000	-0.000	0.000
7771	7731	7732	7727	3	30.334	0.000	-30.334	-0.000	-0.000	0.000
7768	7728	7727	7732	3	30.334	0.000	-30.334	-0.000	-0.000	0.000
7753	7695	7696	7697	3	30.334	0.000	-30.334	-0.000	-0.000	0.000
7754	7696	7697	7699	3	30.334	0.000	-30.334	-0.000	-0.000	0.000
7751	7691	7690	7702	3	30.334	0.000	-30.334	-0.000	-0.000	0.000
7760	7704	7703	7743	3	30.334	0.000	-30.334	-0.000	-0.000	0.000
7760	7704	7705	7706	3	30.334	0.000	-30.334	-0.000	-0.000	0.000
7757	7700	7699	7697	3	30.334	0.000	-30.334	-0.000	-0.000	0.000
7761	7705	7706	7742	3	30.334	0.000	-30.334	-0.000	-0.000	0.000
7770	7730	7731	7732	3	30.334	0.000	-30.334	-0.000	-0.000	0.000
7772	7732	7731	7730	3	30.334	0.000	-30.334	-0.000	-0.000	0.000
7769	7729	7730	7731	3	30.334	0.000	-30.334	-0.000	-0.000	0.000
7772	7732	7727	7728	3	30.334	0.000	-30.334	-0.000	-0.000	0.000
7752	7692	7691	7690	3	30.334	0.000	-30.334	-0.000	-0.000	0.000
7761	7705	7704	7703	3	30.334	0.000	-30.334	-0.000	-0.000	0.000
7772	7732	7727	7726	3	30.334	0.000	-30.334	-0.000	-0.000	0.000
7768	7728	7727	7726	3	30.334	0.000	-30.334	-0.000	-0.000	0.000
7761	7705	7704	7760	3	30.334	0.000	-30.334	-0.000	-0.000	0.000
7784	7743	7742	7783	3	30.334	0.000	-30.334	-0.000	-0.000	0.000
7770	7730	7729	7769	3	30.334	0.000	-30.334	-0.000	-0.000	0.000
7754	7696	7695	7753	3	30.334	0.000	-30.334	-0.000	-0.000	0.000
7759	7702	7701	7758	3	30.334	0.000	-30.334	-0.000	-0.000	0.000
7757	7700	7699	7756	3	30.334	0.000	-30.334	-0.000	-0.000	0.000
7769	7729	7728	7768	3	30.334	0.000	-30.334	-0.000	-0.000	0.000
7752	7692	7691	7751	3	30.334	0.000	-30.334	-0.000	-0.000	0.000
7771	7731	7730	7770	3	30.334	0.000	-30.334	-0.000	-0.000	0.000
7772	7732	7731	7771	3	30.334	0.000	-30.334	-0.000	-0.000	0.000
7784	7743	7703	7686	3	30.334	0.000	-30.334	-0.000	-0.000	0.000
7760	7704	7703	7686	3	30.334	0.000	-30.334	-0.000	-0.000	0.000
7754	7696	7697	7698	3	0.0	0.0	0.0	-0.0	-0.0	0.0
7756	7699	7697	7698	3	0.0	0.0	0.0	-0.0	-0.0	0.0
7751	7691	7690	7689	3	30.334	0.000	-30.334	-0.000	-0.000	0.000
7759	7702	7690	7689	3	30.334	0.000	-30.334	-0.000	-0.000	0.000
7765	7712	7711	7710	3	58.576	0.000	-58.576	-0.000	-0.000	0.000
7765	7712	7713	7714	3	58.576	0.000	-58.576	-0.000	-0.000	0.000
7767	7714	7713	7712	3	58.576	0.000	-58.576	-0.000	-0.000	0.000
7766	7713	7712	7711	3	58.576	0.000	-58.576	-0.000	-0.000	0.000
7763	7708	7709	7710	3	58.576	0.000	-58.576	-0.000	-0.000	0.000
7762	7707	7708	7709	3	58.576	0.000	-58.576	-0.000	-0.000	0.000
7763	7708	7707	7706	3	58.576	0.000	-58.576	-0.000	-0.000	0.000
7766	7713	7714	7715	3	58.576	0.000	-58.576	-0.000	-0.000	0.000
7765	7712	7711	7737	3	58.576	0.000	-58.576	-0.000	-0.000	0.000
7763	7708	7709	7741	3	58.576	0.000	-58.576	-0.000	-0.000	0.000
7763	7708	7707	7762	3	58.576	0.000	-58.576	-0.000	-0.000	0.000
7766	7713	7712	7765	3	58.576	0.000	-58.576	-0.000	-0.000	0.000
7767	7714	7713	7766	3	58.576	0.000	-58.576	-0.000	-0.000	0.000
7762	7707	7706	7742	3	-0.778	-2.335	0.000	3.113	-0.000	0.000
7762	7707	7706	7705	3	-0.778	-2.335	0.000	3.113	-0.000	0.000
7767	7714	7715	7716	3	58.576	0.000	-58.576	-0.000	-0.000	0.000
7767	7714	7715	7726	3	58.576	0.000	-58.576	-0.000	-0.000	0.000
7781	7741	7709	7708	3	-0.778	-2.335	0.000	3.113	-0.000	0.000
7781	7741	7709	7710	3	-0.778	-2.335	0.000	3.113	-0.000	0.000
7782	7741	7709	7708	3	-0.778	-2.335	0.000	3.113	-0.000	0.000
7774	7737	7711	7712	3	-0.778	-2.335	0.000	3.113	-0.000	0.000
7782	7741	7709	7710	3	-0.778	-2.335	0.000	3.113	-0.000	0.000
7773	7737	7711	7710	3	-0.778	-2.335	0.000	3.113	-0.000	0.000
7774	7737	7711	7710	3	-0.778	-2.335	0.000	3.113	-0.000	0.000
7773	7737	7711	7712	3	-0.778	-2.335	0.000	3.113	-0.000	0.000
7776	7739	7738	7741	3	0.628	1.883	0.000	-2.510	-0.000	0.000
7775	7739	7738	7740	3	0.628	1.883	0.000	-2.510	-0.000	0.000
7775	7739	7738	7737	3	0.628	1.883	0.000	-2.510	-0.000	0.000
7777	7739	7738	7740	3	0.628	1.883	0.000	-2.510	-0.000	0.000
7779	7740	7738	7737	3	0.628	1.883	0.000	-2.510	-0.000	0.000
7778	7740	7738	7737	3	0.628	1.883	0.000	-2.510	-0.000	0.000
7777	7739	7738	7737	3	0.628	1.883	0.000	-2.510	-0.000	0.000
7779	7740	7738	7739	3	0.628	1.883	0.000	-2.510	-0.000	0.000
7776	7739	7738	7737	3	0.628	1.883	0.000	-2.510	-0.000	0.000
7781	7741	7738	7737	3	0.628	1.883	0.000	-2.510	-0.000	0.000
7781	7741	7738	7739	3	0.628	1.883	0.000	-2.510	-0.000	0.000
7774	7737	7738	7739	3	0.628	1.883	0.000	-2.510	-0.000	0.000
7777	7739	7738	7741	3	0.628	1.883	0.000	-2.510	-0.000	0.000
7774	7737	7738	7740	3	0.628	1.883	0.000	-2.510	-0.000	0.000
7782	7741	7738	7739	3	0.628	1.883	0.000	-2.510	-0.000	0.000
7778	7740	7738	7741	3	0.628	1.883	0.000	-2.510	-0.000	0.000
7779	7740	7738	7741	3	0.628	1.883	0.000	-2.510	-0.000	0.000
7780	7740	7738	7737	3	0.628	1.883	0.000	-2.510	-0.000	0.000
7773	7737	7738	7740	3	0.628	1.883	0.000	-2.510	-0.000	0.000
7773	7737	7738	7739	3	0.628	1.883	0.000	-2.510	-0.000	0.000
7778	7740	7738	7739	3	0.628	1.883	0.000	-2.510	-0.000	0.000
7774	7737	7738	7741	3	0.628	1.883	0.000	-2.510	-0.000	0.000
7782	7741	7738	7740	3	0.628	1.883	0.000	-2.510	-0.000	0.000
7776	7739	7738	7740	3	0.628	1.883	0.000	-2.510	-0.000	0.000
7775	7739	7738	7741	3	0.628	1.883	0.000	-2.510	-0.000	0.000
7782	7741	7738	7737	3	0.628	1.883	0.000	-2.510	-0.000	0.000
7773	7737	7738	7741	3	0.628	1.883	0.000	-2.510	-0.000	0.000
7780	7740	7738	7739	3	0.628	1.883	0.000	-2.510	-0.000	0.000
7781	7741	7738	7740	3	0.628	1.883	0.000	-2.510	-0.000	0.000
7780	7740	7738	7741	3	0.628	1.883	0.000	-2.510	-0.000	0.000
7749	7688	7687	7748	3	0.628	1.883	0.000	-2.510	-0.000	0.000
7750	7688	7687	7747	3	0.628	1.883	0.000	-2.510	-0.000	0.000
7749	7688	7687	7747	3	0.628	1.883	0.000	-2.510	-0.000	0.000
7750	7688	7687	7748	3	0.628	1.883	0.000	-2.510	-0.000	0.000
7750	7688	7687	7686	3	-4.096	5.088	2.966	-3.958	-0.000	0.000
7749	7688	7687	7686	3	-4.096	5.088	2.966	-3.958	-0.000	0.000
7748	7687	7688	7689	3	0.979	2.937	0.000	-3.916	-0.000	0.000
7747	7687	7688	7689	3	0.979	2.937	0.000	-3.916	-0.000	0.000
7748	7687	7686	7703	3	1.172	3.515	0.000	-4.686	-0.000	0.000
7744	7685	7686	7703	3	1.172	3.515	0.000	-4.686	-0.000	0.000
7747	7687	7686	7703	3	1.172	3.515	0.000	-4.686	-0.000	0.000
7745	7685	7686	7703	3	1.172	3.515	0.000	-4.686	-0.000	0.000
7746	7685	7686	7703	3	1.172	3.515	0.000	-4.686	-0.000	0.000
7747	7687	7686	7685	3	1.172	3.515	0.000	-4.686	-0.000	0.000
7745	7685	7686	7687	3	1.172	3.515	0.000	-4.686	-0.000	0.000
7748	7687	7686	7685	3	1.172	3.515	0.000	-4.686	-0.000	0.000
7746	7685	7686	7687	3	1.172	3.515	0.000	-4.686	-0.000	0.000
7744	7685	7686	7687	3	1.172	3.515	0.000	-4.686	-0.000	0.000
7749	7688	7689	7690	3	1.590	4.770	0.000	-6.360	-0.000	0.000
7750	7688	7689	7690	3	1.590	4.770	0.000	-6.360	-0.000	0.000
7755	7698	7697	7699	3	0.0	0.0	0.0	-0.0	-0.0	0.0
7755	7698	7697	7696	3	0.0	0.0	0.0	-0.0	-0.0	0.0
7698	7697	7696	7695	3	0.0	0.0	0.0	-0.0	-0.0	0.0
7725	7726	7715	7714	3	2.874	0.582	2.092	-5.548	-0.000	0.000
7725	7726	7715	7716	3	1.046	-1.046	0.000	-0.000	-0.000	0.000
7689	7688	7687	7686	3	16.736	-16.736	0.000	-0.000	-0.000	0.000
7725	7719	7716	7715	3	1.046	-1.046	0.000	-0.000	-0.000	0.000
7725	7719	7716	7717	3	9.079	0.000	-9.079	-0.000	-0.000	0.000
7794	7793	7792	7791	3	30.334	0.000	-30.334	-0.000	-0.000	0.000
7793	7801	7802	7790	3	30.334	0.000	-30.334	-0.000	-0.000	0.000
7793	7792	7791	7790	3	30.334	0.000	-30.334	-0.000	-0.000	0.000
7814	7813	7812	7811	3	21.738	2.408	-16.966	-7.180	-0.000	0.000
7810	7809	7808	7807	3	21.738	2.408	-16.966	-7.180	-0.000	0.000
7811	7810	7809	7808	3	21.738	2.408	-16.966	-7.180	-0.000	0.000
7812	7811	7810	7809	3	21.738	2.408	-16.966	-7.180	-0.000	0.000
7813	7812	7811	7810	3	21.738	2.408	-16.966	-7.180	-0.000	0.000
7809	7808	7807	7806	3	58.576	0.000	-58.576	-0.000	-0.000	0.000
7808	7807	7806	7805	3	16.027	-4.391	-14.029	2.393	-0.000	0.000
7807	7806	7805	7804	3	30.334	0.000	-30.334	-0.000	-0.000	0.000
7816	7815	7814	7813	3	58.576	0.000	-58.576	-0.000	-0.000	0.000
7801	7793	7794	7800	3	9.079	0.000	-9.079	-0.000	-0.000	0.000
7800	7794	7793	7792	3	9.079	0.000	-9.079	-0.000	-0.000	0.000
7801	7793	7794	7795	3	9.079	0.000	-9.079	-0.000	-0.000	0.000
7795	7794	7793	7792	3	9.079	0.000	-9.079	-0.000	-0.000	0.000
7800	7794	7795	7796	3	30.334	0.000	-30.334	-0.000	-0.000	0.000
7801	7793	7792	7791	3	30.334	0.000	-30.334	-0.000	-0.000	0.000
7799	7800	7794	7793	3	30.334	0.000	-30.334	-0.000	-0.000	0.000
7802	7801	7793	7794	3	30.334	0.000	-30.334	-0.000	-0.000	0.000
7796	7795	7794	7793	3	30.334	0.000	-30.334	-0.000	-0.000	0.000
7799	7800	7794	7795	3	30.334	0.000	-30.334	-0.000	-0.000	0.000
7802	7801	7793	7792	3	30.334	0.000	-30.334	-0.000	-0.000	0.000
7842	7806	7807	7808	3	16.027	-4.391	-14.029	2.393	-0.000	0.000
7797	7799	7800	7794	3	30.334	0.000	-30.334	-0.000	-0.000	0.000
7797	7796	7795	7794	3	30.334	0.000	-30.334	-0.000	-0.000	0.000
7843	7842	7806	7807	3	30.334	0.000	-30.334	-0.000	-0.000	0.000
7832	7827	7828	7829	3	30.334	0.000	-30.334	-0.000	-0.000	0.000
7843	7842	7806	7805	3	30.334	0.000	-30.334	-0.000	-0.000	0.000
7802	7790	7791	7792	3	30.334	0.000	-30.334	-0.000	-0.000	0.000
7842	7843	7803	7804	3	30.334	0.000	-30.334	-0.000	-0.000	0.000
7832	7831	7830	7829	3	30.334	0.000	-30.334	-0.000	-0.000	0.000
7831	7830	7829	7828	3	30.334	0.000	-30.334	-0.000	-0.000	0.000
7830	7829	7828	7827	3	30.334	0.000	-30.334	-0.000	-0.000	0.000
7806	7805	7804	7803	3	30.334	0.000	-30.334	-0.000	-0.000	0.000
7806	7842	7843	7803	3	30.334	0.000	-30.334	-0.000	-0.000	0.000
7843	7803	7804	7805	3	30.334	0.000	-30.334	-0.000	-0.000	0.000
7842	7806	7805	7804	3	30.334	0.000	-30.334	-0.000	-0.000	0.000
7831	7832	7827	7828	3	30.334	0.000	-30.334	-0.000	-0.000	0.000
7800	7799	7797	7796	3	30.334	0.000	-30.334	-0.000	-0.000	0.000
7801	7802	7790	7791	3	30.334	0.000	-30.334	-0.000	-0.000	0.000
7830	7831	7832	7827	3	30.334	0.000	-30.334	-0.000	-0.000	0.000
7799	7797	7796	7795	3	30.334	0.000	-30.334	-0.000	-0.000	0.000
7831	7832	7827	7826	3	30.334	0.000	-30.334	-0.000	-0.000	0.000
7829	7828	7827	7826	3	30.334	0.000	-30.334	-0.000	-0.000	0.000
7842	7843	7803	7786	3	30.334	0.000	-30.334	-0.000	-0.000	0.000
7805	7804	7803	7786	3	30.334	0.000	-30.334	-0.000	-0.000	0.000
7800	7799	7797	7798	3	0.0	0.0	0.0	-0.0	-0.0	0.0
7792	7791	7790	7789	3	30.334	0.000	-30.334	-0.000	-0.000	0.000
7801	7802	7790	7789	3	30.334	0.000	-30.334	-0.000	-0.000	0.000
7832	7827	7826	7815	3	0.000	0.000	0.000	-0.000	-0.000	0.000
7828	7827	7826	7815	3	0.000	0.000	0.000	-0.000	-0.000	0.000
7832	7827	7826	7825	3	0.000	0.000	0.000	-0.000	-0.000	0.000
7828	7827	7826	7825	3	0.000	0.000	0.000	-0.000	-0.000	0.000
7843	7803	7786	7787	3	5.184	35.932	-14.355	-26.761	-0.000	0.000
7804	7803	7786	7787	3	5.184	35.932	-14.355	-26.761	-0.000	0.000
7804	7803	7786	7785	3	5.184	35.932	-14.355	-26.761	-0.000	0.000
7843	7803	7786	7785	3	5.184	35.932	-14.355	-26.761	-0.000	0.000
7791	7790	7789	7788	3	12.552	0.000	-12.552	-0.000	-0.000	0.000
7802	7790	7789	7788	3	12.552	0.000	-12.552	-0.000	-0.000	0.000
7827	7826	7815	7814	3	6.322	-2.485	0.707	-4.544	-0.000	0.000
7827	7826	7815	7816	3	0.527	-6.397	-1.695	7.565	-0.000	0.000
7827	7826	7825	7819	3	1.715	2.845	1.046	-5.607	-0.000	0.000
7803	7786	7787	7788	3	1.789	3.492	0.536	-5.816	-0.000	0.000
7790	7789	7788	7787	3	1.715	2.845	1.046	-5.607	-0.000	0.000
7833	7826	7827	7828	3	0.000	0.000	0.000	-0.000	-0.000	0.000
7833	7826	7827	7832	3	0.000	0.000	0.000	-0.000	-0.000	0.000
7833	7826	7815	7814	3	6.322	-2.485	0.707	-4.544	-0.000	0.000
7833	7826	7815	7816	3	0.527	-6.397	-1.695	7.565	-0.000	0.000
7833	7826	7825	7819	3	1.715	2.845	1.046	-5.607	-0.000	0.000
7815	7814	7813	7812	3	21.738	2.408	-16.966	-7.180	-0.000	0.000
7820	7819	7816	7815	3	21.738	2.408	-16.966	-7.180	-0.000	0.000
7820	7819	7816	7817	3	-0.778	-2.335	0.000	3.113	-0.000	0.000
7841	7809	7808	7807	3	58.576	0.000	-58.576	-0.000	-0.000	0.000
7837	7811	7810	7809	3	58.576	0.000	-58.576	-0.000	-0.000	0.000
7841	7809	7810	7811	3	58.576	0.000	-58.576	-0.000	-0.000	0.000
7837	7811	7812	7813	3	58.576	0.000	-58.576	-0.000	-0.000	0.000
7826	7815	7814	7813	3	-0.778	-2.335	0.000	3.113	-0.000	0.000
7826	7815	7816	7819	3	58.576	0.000	-58.576	-0.000	-0.000	0.000
7826	7815	7816	7817	3	58.576	0.000	-58.576	-0.000	-0.000	0.000
7838	7841	7809	7808	3	0.527	-6.397	-1.695	7.565	-0.000	0.000
7838	7837	7811	7812	3	0.527	-6.397	-1.695	7.565	-0.000	0.000
7838	7837	7811	7810	3	0.527	-6.397	-1.695	7.565	-0.000	0.000
7838	7841	7809	7810	3	0.527	-6.397	-1.695	7.565	-0.000	0.000
7841	7838	7837	7811	3	2.301	-1.464	0.837	-1.674	-0.000	0.000
7840	7838	7841	7809	3	2.301	-1.464	0.837	-1.674	-0.000	0.000
7837	7838	7841	7809	3	2.301	-1.464	0.837	-1.674	-0.000	0.000
7839	7838	7841	7809	3	2.301	-1.464	0.837	-1.674	-0.000	0.000
7840	7838	7837	7811	3	2.301	-1.464	0.837	-1.674	-0.000	0.000
7839	7838	7837	7811	3	2.301	-1.464	0.837	-1.674	-0.000	0.000
7788	7787	7786	7785	3	1.789	3.492	0.536	-5.816	-0.000	0.000
7826	7825	7819	7816	3	30.334	0.000	-30.334	-0.000	-0.000	0.000
7826	7825	7819	7820	3	30.334	0.000	-30.334	-0.000	-0.000	0.000
7819	7816	7815	7814	3	58.576	0.000	-58.576	-0.000	-0.000	0.000
7819	7825	7826	7815	3	1.715	2.845	1.046	-5.607	-0.000	0.000
7817	7816	7815	7814	3	58.576	0.000	-58.576	-0.000	-0.000	0.000
7821	7820	7819	7816	3	58.576	0.000	-58.576	-0.000	-0.000	0.000
7823	7820	7819	7816	3	58.576	0.000	-58.576	-0.000	-0.000	0.000
7834	7833	7826	7827	3	0.000	0.000	0.000	-0.000	-0.000	0.000
7835	7833	7826	7827	3	0.000	0.000	0.000	-0.000	-0.000	0.000
7836	7833	7826	7827	3	0.000	0.000	0.000	-0.000	-0.000	0.000
7835	7833	7826	7815	3	0.000	0.000	0.000	-0.000	-0.000	0.000
7834	7833	7826	7815	3	0.000	0.000	0.000	-0.000	-0.000	0.000
7836	7833	7826	7815	3	0.000	0.000	0.000	-0.000	-0.000	0.000
7835	7833	7826	7825	3	1.130	3.389	0.000	-4.519	-0.000	0.000
7836	7833	7826	7825	3	1.130	3.389	0.000	-4.519	-0.000	0.000
7834	7833	7826	7825	3	1.130	3.389	0.000	-4.519	-0.000	0.000
7864	7810	7809	7808	3	58.576	0.000	-58.576	-0.000	-0.000	0.000
7864	7810	7811	7812	3	58.576	0.000	-58.576	-0.000	-0.000	0.000
7864	7810	7811	7837	3	58.576	0.000	-58.576	-0.000	-0.000	0.000
7864	7810	7809	7841	3	58.576	0.000	-58.576	-0.000	-0.000	0.000
7853	7795	7794	7793	3	30.334	0.000	-30.334	-0.000	-0.000	0.000
7852	7792	7793	7794	3	30.334	0.000	-30.334	-0.000	-0.000	0.000
7858	7801	7793	7794	3	30.334	0.000	-30.334	-0.000	-0.000	0.000
7857	7800	7794	7793	3	30.334	0.000	-30.334	-0.000	-0.000	0.000
7857	7800	7794	7795	3	30.334	0.000	-30.334	-0.000	-0.000	0.000
7853	7795	7794	7800	3	30.334	0.000	-30.334	-0.000	-0.000	0.000
7852	7792	7793	7801	3	30.334	0.000	-30.334	-0.000	-0.000	0.000
7858	7801	7793	7792	3	30.334	0.000	-30.334	-0.000	-0.000	0.000
7851	7791	7792	7793	3	30.334	0.000	-30.334	-0.000	-0.000	0.000
7859	7802	7801	7793	3	30.334	0.000	-30.334	-0.000	-0.000	0.000
7854	7796	7795	7794	3	30.334	0.000	-30.334	-0.000	-0.000	0.000
7856	7799	7800	7794	3	30.334	0.000	-30.334	-0.000	-0.000	0.000
7861	7805	7806	7807	3	30.334	0.000	-30.334	-0.000	-0.000	0.000
7883	7842	7806	7807	3	30.334	0.000	-30.334	-0.000	-0.000	0.000
7868	7828	7829	7830	3	30.334	0.000	-30.334	-0.000	-0.000	0.000
7856	7799	7797	7796	3	30.334	0.000	-30.334	-0.000	-0.000	0.000
7871	7831	7830	7829	3	30.334	0.000	-30.334	-0.000	-0.000	0.000
7883	7842	7843	7803	3	30.334	0.000	-30.334	-0.000	-0.000	0.000
7869	7829	7828	7827	3	30.334	0.000	-30.334	-0.000	-0.000	0.000
7884	7843	7842	7806	3	30.334	0.000	-30.334	-0.000	-0.000	0.000
7870	7830	7829	7828	3	30.334	0.000	-30.334	-0.000	-0.000	0.000
7859	7802	7790	7791	3	30.334	0.000	-30.334	-0.000	-0.000	0.000
7858	7801	7802	7790	3	30.334	0.000	-30.334	-0.000	-0.000	0.000
7883	7842	7806	7805	3	30.334	0.000	-30.334	-0.000	-0.000	0.000
7884	7843	7803	7804	3	30.334	0.000	-30.334	-0.000	-0.000	0.000
7871	7831	7832	7827	3	30.334	0.000	-30.334	-0.000	-0.000	0.000
7868	7828	7827	7832	3	30.334	0.000	-30.334	-0.000	-0.000	0.000
7853	7795	7796	7797	3	30.334	0.000	-30.334	-0.000	-0.000	0.000
7854	7796	7797	7799	3	30.334	0.000	-30.334	-0.000	-0.000	0.000
7851	7791	7790	7802	3	30.334	0.000	-30.334	-0.000	-0.000	0.000
7860	7804	7803	7843	3	30.334	0.000	-30.334	-0.000	-0.000	0.000
7860	7804	7805	7806	3	30.334	0.000	-30.334	-0.000	-0.000	0.000
7857	7800	7799	7797	3	30.334	0.000	-30.334	-0.000	-0.000	0.000
7861	7805	7806	7842	3	30.334	0.000	-30.334	-0.000	-0.000	0.000
7870	7830	7831	7832	3	30.334	0.000	-30.334	-0.000	-0.000	0.000
7872	7832	7831	7830	3	30.334	0.000	-30.334	-0.000	-0.000	0.000
7869	7829	7830	7831	3	30.334	0.000	-30.334	-0.000	-0.000	0.000
7872	7832	7827	7828	3	30.334	0.000	-30.334	-0.000	-0.000	0.000
7852	7792	7791	7790	3	30.334	0.000	-30.334	-0.000	-0.000	0.000
7861	7805	7804	7803	3	30.334	0.000	-30.334	-0.000	-0.000	0.000
7872	7832	7827	7826	3	30.334	0.000	-30.334	-0.000	-0.000	0.000
7868	7828	7827	7826	3	30.334	0.000	-30.334	-0.000	-0.000	0.000
7861	7805	7804	7860	3	30.334	0.000	-30.334	-0.000	-0.000	0.000
7884	7843	7842	7883	3	30.334	0.000	-30.334	-0.000	-0.000	0.000
7870	7830	7829	7869	3	30.334	0.000	-30.334	-0.000	-0.000	0.000
7854	7796	7795	7853	3	30.334	0.000	-30.334	-0.000	-0.000	0.000
7859	7802	7801	7858	3	30.334	0.000	-30.334	-0.000	-0.000	0.000
7857	7800	7799	7856	3	30.334	0.000	-30.334	-0.000	-0.000	0.000
7869	7829	7828	7868	3	30.334	0.000	-30.334	-0.000	-0.000	0.000
7852	7792	7791	7851	3	30.334	0.000	-30.334	-0.000	-0.000	0.000
7871	7831	7830	7870	3	30.334	0.000	-30.334	-0.000	-0.000	0.000
7872	7832	7831	7871	3	30.334	0.000	-30.334	-0.000	-0.000	0.000
7884	7843	7803	7786	3	30.334	0.000	-30.334	-0.000	-0.000	0.000
7860	7804	7803	7786	3	30.334	0.000	-30.334	-0.000	-0.000	0.000
7854	7796	7797	7798	3	0.0	0.0	0.0	-0.0	-0.0	0.0
7856	7799	7797	7798	3	0.0	0.0	0.0	-0.0	-0.0	0.0
7851	7791	7790	7789	3	30.334	0.000	-30.334	-0.000	-0.000	0.000
7859	7802	7790	7789	3	30.334	0.000	-30.334	-0.000	-0.000	0.000
7865	7812	7811	7810	3	58.576	0.000	-58.576	-0.000	-0.000	0.000
7865	7812	7813	7814	3	58.576	0.000	-58.576	-0.000	-0.000	0.000
7867	7814	7813	7812	3	58.576	0.000	-58.576	-0.000	-0.000	0.000
7866	7813	7812	7811	3	58.576	0.000	-58.576	-0.000	-0.000	0.000
7863	7808	7809	7810	3	58.576	0.000	-58.576	-0.000	-0.000	0.000
7862	7807	7808	7809	3	58.576	0.000	-58.576	-0.000	-0.000	0.000
7863	7808	7807	7806	3	58.576	0.000	-58.576	-0.000	-0.000	0.000
7866	7813	7814	7815	3	58.576	0.000	-58.576	-0.000	-0.000	0.000
7865	7812	7811	7837	3	58.576	0.000	-58.576	-0.000	-0.000	0.000
7863	7808	7809	7841	3	58.576	0.000	-58.576	-0.000	-0.000	0.000
7863	7808	7807	7862	3	58.576	0.000	-58.576	-0.000	-0.000	0.000
7866	7813	7812	7865	3	58.576	0.000	-58.576	-0.000	-0.000	0.000
7867	7814	7813	7866	3	58.576	0.000	-58.576	-0.000	-0.000	0.000
7862	7807	7806	7842	3	-0.778	-2.335	0.000	3.113	-0.000	0.000
7862	7807	7806	7805	3	-0.778	-2.335	0.000	3.113	-0.000	0.000
7867	7814	7815	7816	3	58.576	0.000	-58.576	-0.000	-0.000	0.000
7867	7814	7815	7826	3	58.576	0.000	-58.576	-0.000	-0.000	0.000
7881	7841	7809	7808	3	-0.778	-2.335	0.000	3.113	-0.000	0.000
7881	7841	7809	7810	3	-0.778	-2.335	0.000	3.113	-0.000	0.000
7882	7841	7809	7808	3	-0.778	-2.335	0.000	3.113	-0.000	0.000
7874	7837	7811	7812	3	-0.778	-2.335	0.000	3.113	-0.000	0.000
7882	7841	7809	7810	3	-0.778	-2.335	0.000	3.113	-0.000	0.000
7873	7837	7811	7810	3	-0.778	-2.335	0.000	3.113	-0.000	0.000
7874	7837	7811	7810	3	-0.778	-2.335	0.000	3.113	-0.000	0.000
7873	7837	7811	7812	3	-0.778	-2.335	0.000	3.113	-0.000	0.000
7876	7839	7838	7841	3	0.628	1.883	0.000	-2.510	-0.000	0.000
7875	7839	7838	7840	3	0.628	1.883	0.000	-2.510	-0.000	0.000
7875	7839	7838	7837	3	0.628	1.883	0.000	-2.510	-0.000	0.000
7877	7839	7838	7840	3	0.628	1.883	0.000	-2.510	-0.000	0.000
7879	7840	7838	7837	3	0.628	1.883	0.000	-2.510	-0.000	0.000
7878	7840	7838	7837	3	0.628	1.883	0.000	-2.510	-0.000	0.000
7877	7839	7838	7837	3	0.628	1.883	0.000	-2.510	-0.000	0.000
7879	7840	7838	7839	3	0.628	1.883	0.000	-2.510	-0.000	0.000
7876	7839	7838	7837	3	0.628	1.883	0.000	-2.510	-0.000	0.000
7881	7841	7838	7837	3	0.628	1.883	0.000	-2.510	-0.000	0.000
7881	7841	7838	7839	3	0.628	1.883	0.000	-2.510	-0.000	0.000
7874	7837	7838	7839	3	0.628	1.883	0.000	-2.510	-0.000	0.000
7877	7839	7838	7841	3	0.628	1.883	0.000	-2.510	-0.000	0.000
7874	7837	7838	7840	3	0.628	1.883	0.000	-2.510	-0.000	0.000
7882	7841	7838	7839	3	0.628	1.883	0.000	-2.510	-0.000	0.000
7878	7840	7838	7841	3	0.628	1.883	0.000	-2.510	-0.000	0.000
7879	7840	7838	7841	3	0.628	1.883	0.000	-2.510	-0.000	0.000
7880	7840	7838	7837	3	0.628	1.883	0.000	-2.510	-0.000	0.000
7873	7837	7838	7840	3	0.628	1.883	0.000	-2.510	-0.000	0.000
7873	7837	7838	7839	3	0.628	1.883	0.000	-2.510	-0.000	0.000
7878	7840	7838	7839	3	0.628	1.883	0.000	-2.510	-0.000	0.000
7874	7837	7838	7841	3	0.628	1.883	0.000	-2.510	-0.000	0.000
7882	7841	7838	7840	3	0.628	1.883	0.000	-2.510	-0.000	0.000
7876	7839	7838	7840	3	0.628	1.883	0.000	-2.510	-0.000	0.000
7875	7839	7838	7841	3	0.628	1.883	0.000	-2.510	-0.000	0.000
7882	7841	7838	7837	3	0.628	1.883	0.000	-2.510	-0.000	0.000
7873	7837	7838	7841	3	0.628	1.883	0.000	-2.510	-0.000	0.000
7880	7840	7838	7839	3	0.628	1.883	0.000	-2.510	-0.000	0.000
7881	7841	7838	7840	3	0.628	1.883	0.000	-2.510	-0.000	0.000
7880	7840	7838	7841	3	0.628	1.883	0.000	-2.510	-0.000	0.000
7849	7788	7787	7848	3	0.628	1.883	0.000	-2.510	-0.000	0.000
7850	7788	7787	7847	3	0.628	1.883	0.000	-2.510	-0.000	0.000
7849	7788	7787	7847	3	0.628	1.883	0.000	-2.510	-0.000	0.000
7850	7788	7787	7848	3	0.628	1.883	0.000	-2.510	-0.000	0.000
7850	7788	7787	7786	3	-4.096	5.088	2.966	-3.958	-0.000	0.000
7849	7788	7787	7786	3	-4.096	5.088	2.966	-3.958	-0.000	0.000
7848	7787	7788	7789	3	0.979	2.937	0.000	-3.916	-0.000	0.000
7847	7787	7788	7789	3	0.979	2.937	0.000	-3.916	-0.000	0.000
7848	7787	7786	7803	3	1.172	3.515	0.000	-4.686	-0.000	0.000
7844	7785	7786	7803	3	1.172	3.515	0.000	-4.686	-0.000	0.000
7847	7787	7786	7803	3	1.172	3.515	0.000	-4.686	-0.000	0.000
7845	7785	7786	7803	3	1.172	3.515	0.000	-4.686	-0.000	0.000
7846	7785	7786	7803	3	1.172	3.515	0.000	-4.686	-0.000	0.000
7847	7787	7786	7785	3	1.172	3.515	0.000	-4.686	-0.000	0.000
7845	7785	7786	7787	3	1.172	3.515	0.000	-4.686	-0.000	0.000
7848	7787	7786	7785	3	1.172	3.515	0.000	-4.686	-0.000	0.000
7846	7785	7786	7787	3	1.172	3.515	0.000	-4.686	-0.000	0.000
7844	7785	7786	7787	3	1.172	3.515	0.000	-4.686	-0.000	0.000
7849	7788	7789	7790	3	1.590	4.770	0.000	-6.360	-0.000	0.000
7850	7788	7789	7790	3	1.590	4.770	0.000	-6.360	-0.000	0.000
7855	7798	7797	7799	3	0.0	0.0	0.0	-0.0	-0.0	0.0
7855	7798	7797	7796	3	0.0	0.0	0.0	-0.0	-0.0	0.0
7798	7797	7796	7795	3	0.0	0.0	0.0	-0.0	-0.0	0.0
7825	7826	7815	7814	3	2.874	0.582	2.092	-5.548	-0.000	0.000
7825	7826	7815	7816	3	1.046	-1.046	0.000	-0.000	-0.000	0.000
7789	7788	7787	7786	3	16.736	-16.736	0.000	-0.000	-0.000	0.000
7825	7819	7816	7815	3	1.046	-1.046	0.000	-0.000	-0.000	0.000
7825	7819	7816	7817	3	9.079	0.000	-9.079	-0.000	-0.000	0.000
7894	7893	7892	7891	3	30.334	0.000	-30.334	-0.000	-0.000	0.000
7893	7901	7902	7890	3	30.334	0.000	-30.334	-0.000	-0.000	0.000
7893	7892	7891	7890	3	30.334	0.000	-30.334	-0.000	-0.000	0.000
7914	7913	7912	7911	3	21.738	2.408	-16.966	-7.180	-0.000	0.000
7910	7909	7908	7907	3	21.738	2.408	-16.966	-7.180	-0.000	0.000
7911	7910	7909	7908	3	21.738	2.408	-16.966	-7.180	-0.000	0.000
7912	7911	7910	7909	3	21.738	2.408	-16.966	-7.180	-0.000	0.000
7913	7912	7911	7910	3	21.738	2.408	-16.966	-7.180	-0.000	0.000
7909	7908	7907	7906	3	58.576	0.000	-58.576	-0.000	-0.000	0.000
7908	7907	7906	7905	3	16.027	-4.391	-14.029	2.393	-0.000	0.000
7907	7906	7905	7904	3	30.334	0.000	-30.334	-0.000	-0.000	0.000
7916	7915	7914	7913	3	58.576	0.000	-58.576	-0.000	-0.000	0.000
7901	7893	7894	7900	3	9.079	0.000	-9.079	-0.000	-0.000	0.000
7900	7894	7893	7892	3	9.079	0.000	-9.079	-0.000	-0.000	0.000
7901	7893	7894	7895	3	9.079	0.000	-9.079	-0.000	-0.000	0.000
7895	7894	7893	7892	3	9.079	0.000	-9.079	-0.000	-0.000	0.000
7900	7894	7895	7896	3	30.334	0.000	-30.334	-0.000	-0.000	0.000
7901	7893	7892	7891	3	30.334	0.000	-30.334	-0.000	-0.000	0.000
7899	7900	7894	7893	3	30.334	0.000	-30.334	-0.000	-0.000	0.000
7902	7901	7893	7894	3	30.334	0.000	-30.334	-0.000	-0.000	0.000
7896	7895	7894	7893	3	30.334	0.000	-30.334	-0.000	-0.000	0.000
7899	7900	7894	7895	3	30.334	0.000	-30.334	-0.000	-0.000	0.000
7902	7901	7893	7892	3	30.334	0.000	-30.334	-0.000	-0.000	0.000
7942	7906	7907	7908	3	16.027	-4.391	-14.029	2.393	-0.000	0.000
7897	7899	7900	7894	3	30.334	0.000	-30.334	-0.000	-0.000	0.000
7897	7896	7895	7894	3	30.334	0.000	-30.334	-0.000	-0.000	0.000
7943	7942	7906	7907	3	30.334	0.000	-30.334	-0.000	-0.000	0.000
7932	7927	7928	7929	3	30.334	0.000	-30.334	-0.000	-0.000	0.000
7943	7942	7906	7905	3	30.334	0.000	-30.334	-0.000	-0.000	0.000
7902	7890	7891	7892	3	30.334	0.000	-30.334	-0.000	-0.000	0.000
7942	7943	7903	7904	3	30.334	0.000	-30.334	-0.000	-0.000	0.000
7932	7931	7930	7929	3	30.334	0.000	-30.334	-0.000	-0.000	0.000
7931	7930	7929	7928	3	30.334	0.000	-30.334	-0.000	-0.000	0.000
7930	7929	7928	7927	3	30.334	0.000	-30.334	-0.000	-0.000	0.000
7906	7905	7904	7903	3	30.334	0.000	-30.334	-0.000	-0.000	0.000
7906	7942	7943	7903	3	30.334	0.000	-30.334	-0.000	-0.000	0.000
7943	7903	7904	7905	3	30.334	0.000	-30.334	-0.000	-0.000	0.000
7942	7906	7905	7904	3	30.334	0.000	-30.334	-0.000	-0.000	0.000
7931	7932	7927	7928	3	30.334	0.000	-30.334	-0.000	-0.000	0.000
7900	7899	7897	7896	3	30.334	0.000	-30.334	-0.000	-0.000	0.000
7901	7902	7890	7891	3	30.334	0.000	-30.334	-0.000	-0.000	0.000
7930	7931	7932	7927	3	30.334	0.000	-30.334	-0.000	-0.000	0.000
7899	7897	7896	7895	3	30.334	0.000	-30.334	-0.000	-0.000	0.000
7931	7932	7927	7926	3	30.334	0.000	-30.334	-0.000	-0.000	0.000
7929	7928	7927	7926	3	30.334	0.000	-30.334	-0.000	-0.000	0.000
7942	7943	7903	7886	3	30.334	0.000	-30.334	-0.000	-0.000	0.000
7905	7904	7903	7886	3	30.334	0.000	-30.334	-0.000	-0.000	0.000
7900	7899	7897	7898	3	0.0	0.0	0.0	-0.0	-0.0	0.0
7892	7891	7890	7889	3	30.334	0.000	-30.334	-0.000	-0.000	0.000
7901	7902	7890	7889	3	30.334	0.000	-30.334	-0.000	-0.000	0.000
7932	7927	7926	7915	3	0.000	0.000	0.000	-0.000	-0.000	0.000
7928	7927	7926	7915	3	0.000	0.000	0.000	-0.000	-0.000	0.000
7932	7927	7926	7925	3	0.000	0.000	0.000	-0.000	-0.000	0.000
7928	7927	7926	7925	3	0.000	0.000	0.000	-0.000	-0.000	0.000
7943	7903	7886	7887	3	5.184	35.932	-14.355	-26.761	-0.000	0.000
7904	7903	7886	7887	3	5.184	35.932	-14.355	-26.761	-0.000	0.000
7904	7903	7886	7885	3	5.184	35.932	-14.355	-26.761	-0.000	0.000
7943	7903	7886	7885	3	5.184	35.932	-14.355	-26.761	-0.000	0.000
7891	7890	7889	7888	3	12.552	0.000	-12.552	-0.000	-0.000	0.000
7902	7890	7889	7888	3	12.552	0.000	-12.552	-0.000	-0.000	0.000
7927	7926	7915	7914	3	6.322	-2.485	0.707	-4.544	-0.000	0.000
7927	7926	7915	7916	3	0.527	-6.397	-1.695	7.565	-0.000	0.000
7927	7926	7925	7919	3	1.715	2.845	1.046	-5.607	-0.000	0.000
7903	7886	7887	7888	3	1.789	3.492	0.536	-5.816	-0.000	0.000
7890	7889	7888	7887	3	1.715	2.845	1.046	-5.607	-0.000	0.000
7933	7926	7927	7928	3	0.000	0.000	0.000	-0.000	-0.000	0.000
7933	7926	7927	7932	3	0.000	0.000	0.000	-0.000	-0.000	0.000
7933	7926	7915	7914	3	6.322	-2.485	0.707	-4.544	-0.000	0.000
7933	7926	7915	7916	3	0.527	-6.397	-1.695	7.565	-0.000	0.000
7933	7926	7925	7919	3	1.715	2.845	1.046	-5.607	-0.000	0.000
7915	7914	7913	7912	3	21.738	2.408	-16.966	-7.180	-0.000	0.000
7920	7919	7916	7915	3	21.738	2.408	-16.966	-7.180	-0.000	0.000
7920	7919	7916	7917	3	-0.778	-2.335	0.000	3.113	-0.000	0.000
7941	7909	7908	7907	3	58.576	0.000	-58.576	-0.000	-0.000	0.000
7937	7911	7910	7909	3	58.576	0.000	-58.576	-0.000	-0.000	0.000
7941	7909	7910	7911	3	58.576	0.000	-58.576	-0.000	-0.000	0.000
7937	7911	7912	7913	3	58.576	0.000	-58.576	-0.000	-0.000	0.000
7926	7915	7914	7913	3	-0.778	-2.335	0.000	3.113	-0.000	0.000
7926	7915	7916	7919	3	58.576	0.000	-58.576	-0.000	-0.000	0.000
7926	7915	7916	7917	3	58.576	0.000	-58.576	-0.000	-0.000	0.000
7938	7941	7909	7908	3	0.527	-6.397	-1.695	7.565	-0.000	0.000
7938	7937	7911	7912	3	0.527	-6.397	-1.695	7.565	-0.000	0.000
7938	7937	7911	7910	3	0.527	-6.397	-1.695	7.565	-0.000	0.000
7938	7941	7909	7910	3	0.527	-6.397	-1.695	7.565	-0.000	0.000
7941	7938	7937	7911	3	2.301	-1.464	0.837	-1.674	-0.000	0.000
7940	7938	7941	7909	3	2.301	-1.464	0.837	-1.674	-0.000	0.000
7937	7938	7941	7909	3	2.301	-1.464	0.837	-1.674	-0.000	0.000
7939	7938	7941	7909	3	2.301	-1.464	0.837	-1.674	-0.000	0.000
7940	7938	7937	7911	3	2.301	-1.464	0.837	-1.674	-0.000	0.000
7939	7938	7937	7911	3	2.301	-1.464	0.837	-1.674	-0.000	0.000
7888	7887	7886	7885	3	1.789	3.492	0.536	-5.816	-0.000	0.000
7926	7925	7919	7916	3	30.334	0.000	-30.334	-0.000	-0.000	0.000
7926	7925	7919	7920	3	30.334	0.000	-30.334	-0.000	-0.000	0.000
7919	7916	7915	7914	3	58.576	0.000	-58.576	-0.000	-0.000	0.000
7919	7925	7926	7915	3	1.715	2.845	1.046	-5.607	-0.000	0.000
7917	7916	7915	7914	3	58.576	0.000	-58.576	-0.000	-0.000	0.000
7921	7920	7919	7916	3	58.576	0.000	-58.576	-0.000	-0.000	0.000
7923	7920	7919	7916	3	58.576	0.000	-58.576	-0.000	-0.000	0.000
7934	7933	7926	7927	3	0.000	0.000	0.000	-0.000	-0.000	0.000
7935	7933	7926	7927	3	0.000	0.000	0.000	-0.000	-0.000	0.000
7936	7933	7926	7927	3	0.000	0.000	0.000	-0.000	-0.000	0.000
7935	7933	7926	7915	3	0.000	0.000	0.000	-0.000	-0.000	0.000
7934	7933	7926	7915	3	0.000	0.000	0.000	-0.000	-0.000	0.000
7936	7933	7926	7915	3	0.000	0.000	0.000	-0.000	-0.000	0.000
7935	7933	7926	7925	3	1.130	3.389	0.000	-4.519	-0.000	0.000
7936	7933	7926	7925	3	1.130	3.389	0.000	-4.519	-0.000	0.000
7934	7933	7926	7925	3	1.130	3.389	0.000	-4.519	-0.000	0.000
7964	7910	7909	7908	3	58.576	0.000	-58.576	-0.000	-0.000	0.000
7964	7910	7911	7912	3	58.576	0.000	-58.576	-0.000	-0.000	0.000
7964	7910	7911	7937	3	58.576	0.000	-58.576	-0.000	-0.000	0.000
7964	7910	7909	7941	3	58.576	0.000	-58.576	-0.000	-0.000	0.000
7953	7895	7894	7893	3	30.334	0.000	-30.334	-0.000	-0.000	0.000
7952	7892	7893	7894	3	30.334	0.000	-30.334	-0.000	-0.000	0.000
7958	7901	7893	7894	3	30.334	0.000	-30.334	-0.000	-0.000	0.000
7957	7900	7894	7893	3	30.334	0.000	-30.334	-0.000	-0.000	0.000
7957	7900	7894	7895	3	30.334	0.000	-30.334	-0.000	-0.000	0.000
7953	7895	7894	7900	3	30.334	0.000	-30.334	-0.000	-0.000	0.000
7952	7892	7893	7901	3	30.334	0.000	-30.334	-0.000	-0.000	0.000
7958	7901	7893	7892	3	30.334	0.000	-30.334	-0.000	-0.000	0.000
7951	7891	7892	7893	3	30.334	0.000	-30.334	-0.000	-0.000	0.000
7959	7902	7901	7893	3	30.334	0.000	-30.334	-0.000	-0.000	0.000
7954	7896	7895	7894	3	30.334	0.000	-30.334	-0.000	-0.000	0.000
7956	7899	7900	7894	3	30.334	0.000	-30.334	-0.000	-0.000	0.000
7961	7905	7906	7907	3	30.334	0.000	-30.334	-0.000	-0.000	0.000
7983	7942	7906	7907	3	30.334	0.000	-30.334	-0.000	-0.000	0.000
7968	7928	7929	7930	3	30.334	0.000	-30.334	-0.000	-0.000	0.000
7956	7899	7897	7896	3	30.334	0.000	-30.334	-0.000	-0.000	0.000
7971	7931	7930	7929	3	30.334	0.000	-30.334	-0.000	-0.000	0.000
7983	7942	7943	7903	3	30.334	0.000	-30.334	-0.000	-0.000	0.000
7969	7929	7928	7927	3	30.334	0.000	-30.334	-0.000	-0.000	0.000
7984	7943	7942	7906	3	30.334	0.000	-30.334	-0.000	-0.000	0.000
7970	7930	7929	7928	3	30.334	0.000	-30.334	-0.000	-0.000	0.000
7959	7902	7890	7891	3	30.334	0.000	-30.334	-0.000	-0.000	0.000
7958	7901	7902	7890	3	30.334	0.000	-30.334	-0.000	-0.000	0.000
7983	7942	7906	7905	3	30.334	0.000	-30.334	-0.000	-0.000	0.000
7984	7943	7903	7904	3	30.334	0.000	-30.334	-0.000	-0.000	0.000
7971	7931	7932	7927	3	30.334	0.000	-30.334	-0.000	-0.000	0.000
7968	7928	7927	7932	3	30.334	0.000	-30.334	-0.000	-0.000	0.000
7953	7895	7896	7897	3	30.334	0.000	-30.334	-0.000	-0.000	0.000
7954	7896	7897	7899	3	30.334	0.000	-30.334	-0.000	-0.000	0.000
7951	7891	7890	7902	3	30.334	0.000	-30.334	-0.000	-0.000	0.000
7960	7904	7903	7943	3	30.334	0.000	-30.334	-0.000	-0.000	0.000
7960	7904	7905	7906	3	30.334	0.000	-30.334	-0.000	-0.000	0.000
7957	7900	7899	7897	3	30.334	0.000	-30.334	-0.000	-0.000	0.000
7961	7905	7906	7942	3	30.334	0.000	-30.334	-0.000	-0.000	0.000
7970	7930	7931	7932	3	30.334	0.000	-30.334	-0.000	-0.000	0.000
7972	7932	7931	7930	3	30.334	0.000	-30.334	-0.000	-0.000	0.000
7969	7929	7930	7931	3	30.334	0.000	-30.334	-0.000	-0.000	0.000
7972	7932	7927	7928	3	30.334	0.000	-30.334	-0.000	-0.000	0.000
7952	7892	7891	7890	3	30.334	0.000	-30.334	-0.000	-0.000	0.000
7961	7905	7904	7903	3	30.334	0.000	-30.334	-0.000	-0.000	0.000
7972	7932	7927	7926	3	30.334	0.000	-30.334	-0.000	-0.000	0.000
7968	7928	7927	7926	3	30.334	0.000	-30.334	-0.000	-0.000	0.000
7961	7905	7904	7960	3	30.334	0.000	-30.334	-0.000	-0.000	0.000
7984	7943	7942	7983	3	30.334	0.000	-30.334	-0.000	-0.000	0.000
7970	7930	7929	7969	3	30.334	0.000	-30.334	-0.000	-0.000	0.000
7954	7896	7895	7953	3	30.334	0.000	-30.334	-0.000	-0.000	0.000
7959	7902	7901	7958	3	30.334	0.000	-30.334	-0.000	-0.000	0.000
7957	7900	7899	7956	3	30.334	0.000	-30.334	-0.000	-0.000	0.000
7969	7929	7928	7968	3	30.334	0.000	-30.334	-0.000	-0.000	0.000
7952	7892	7891	7951	3	30.334	0.000	-30.334	-0.000	-0.000	0.000
7971	7931	7930	7970	3	30.334	0.000	-30.334	-0.000	-0.000	0.000
7972	7932	7931	7971	3	30.334	0.000	-30.334	-0.000	-0.000	0.000
7984	7943	7903	7886	3	30.334	0.000	-30.334	-0.000	-0.000	0.000
7960	7904	7903	7886	3	30.334	0.000	-30.334	-0.000	-0.000	0.000
7954	7896	7897	7898	3	0.0	0.0	0.0	-0.0	-0.0	0.0
7956	7899	7897	7898	3	0.0	0.0	0.0	-0.0	-0.0	0.0
7951	7891	7890	7889	3	30.334	0.000	-30.334	-0.000	-0.000	0.000
7959	7902	7890	7889	3	30.334	0.000	-30.334	-0.000	-0.000	0.000
7965	7912	7911	7910	3	58.576	0.000	-58.576	-0.000	-0.000	0.000
7965	7912	7913	7914	3	58.576	0.000	-58.576	-0.000	-0.000	0.000
7967	7914	7913	7912	3	58.576	0.000	-58.576	-0.000	-0.000	0.000
7966	7913	7912	7911	3	58.576	0.000	-58.576	-0.000	-0.000	0.000
7963	7908	7909	7910	3	58.576	0.000	-58.576	-0.000	-0.000	0.000
7962	7907	7908	7909	3	58.576	0.000	-58.576	-0.000	-0.000	0.000
7963	7908	7907	7906	3	58.576	0.000	-58.576	-0.000	-0.000	0.000
7966	7913	7914	7915	3	58.576	0.000	-58.576	-0.000	-0.000	0.000
7965	7912	7911	7937	3	58.576	0.000	-58.576	-0.000	-0.000	0.000
7963	7908	7909	7941	3	58.576	0.000	-58.576	-0.000	-0.000	0.000
7963	7908	7907	7962	3	58.576	0.000	-58.576	-0.000	-0.000	0.000
7966	7913	7912	7965	3	58.576	0.000	-58.576	-0.000	-0.000	0.000
7967	7914	7913	7966	3	58.576	0.000	-58.576	-0.000	-0.000	0.000
7962	7907	7906	7942	3	-0.778	-2.335	0.000	3.113	-0.000	0.000
7962	7907	7906	7905	3	-0.778	-2.335	0.000	3.113	-0.000	0.000
7967	7914	7915	7916	3	58.576	0.000	-58.576	-0.000	-0.000	0.000
7967	7914	7915	7926	3	58.576	0.000	-58.576	-0.000	-0.000	0.000
7981	7941	7909	7908	3	-0.778	-2.335	0.000	3.113	-0.000	0.000
7981	7941	7909	7910	3	-0.778	-2.335	0.000	3.113	-0.000	0.000
7982	7941	7909	7908	3	-0.778	-2.335	0.000	3.113	-0.000	0.000
7974	7937	7911	7912	3	-0.778	-2.335	0.000	3.113	-0.000	0.000
7982	7941	7909	7910	3	-0.778	-2.335	0.000	3.113	-0.000	0.000
7973	7937	7911	7910	3	-0.778	-2.335	0.000	3.113	-0.000	0.000
7974	7937	7911	7910	3	-0.778	-2.335	0.000	3.113	-0.000	0.000
7973	7937	7911	7912	3	-0.778	-2.335	0.000	3.113	-0.000	0.000
7976	7939	7938	7941	3	0.628	1.883	0.000	-2.510	-0.000	0.000
7975	7939	7938	7940	3	0.628	1.883	0.000	-2.510	-0.000	0.000
7975	7939	7938	7937	3	0.628	1.883	0.000	-2.510	-0.000	0.000
7977	7939	7938	7940	3	0.628	1.883	0.000	-2.510	-0.000	0.000
7979	7940	7938	7937	3	0.628	1.883	0.000	-2.510	-0.000	0.000
7978	7940	7938	7937	3	0.628	1.883	0.000	-2.510	-0.000	0.000
7977	7939	7938	7937	3	0.628	1.883	0.000	-2.510	-0.000	0.000
7979	7940	7938	7939	3	0.628	1.883	0.000	-2.510	-0.000	0.000
7976	7939	7938	7937	3	0.628	1.883	0.000	-2.510	-0.000	0.000
7981	7941	7938	7937	3	0.628	1.883	0.000	-2.510	-0.000	0.000
7981	7941	7938	7939	3	0.628	1.883	0.000	-2.510	-0.000	0.000
7974	7937	7938	7939	3	0.628	1.883	0.000	-2.510	-0.000	0.000
7977	7939	7938	7941	3	0.628	1.883	0.000	-2.510	-0.000	0.000
7974	7937	7938	7940	3	0.628	1.883	0.000	-2.510	-0.000	0.000
7982	7941	7938	7939	3	0.628	1.883	0.000	-2.510	-0.000	0.000
7978	7940	7938	7941	3	0.628	1.883	0.000	-2.510	-0.000	0.000
7979	7940	7938	7941	3	0.628	1.883	0.000	-2.510	-0.000	0.000
7980	7940	7938	7937	3	0.628	1.883	0.000	-2.510	-0.000	0.000
7973	7937	7938	7940	3	0.628	1.883	0.000	-2.510	-0.000	0.000
7973	7937	7938	7939	3	0.628	1.883	0.000	-2.510	-0.000	0.000
7978	7940	7938	7939	3	0.628	1.883	0.000	-2.510	-0.000	0.000
7974	7937	7938	7941	3	0.628	1.883	0.000	-2.510	-0.000	0.000
7982	7941	7938	7940	3	0.628	1.883	0.000	-2.510	-0.000	0.000
7976	7939	7938	7940	3	0.628	1.883	0.000	-2.510	-0.000	0.000
7975	7939	7938	7941	3	0.628	1.883	0.000	-2.510	-0.000	0.000
7982	7941	7938	7937	3	0.628	1.883	0.000	-2.510	-0.000	0.000
7973	7937	7938	7941	3	0.628	1.883	0.000	-2.510	-0.000	0.000
7980	7940	7938	7939	3	0.628	1.883	0.000	-2.510	-0.000	0.000
7981	7941	7938	7940	3	0.628	1.883	0.000	-2.510	-0.000	0.000
7980	7940	7938	7941	3	0.628	1.883	0.000	-2.510	-0.000	0.000
7949	7888	7887	7948	3	0.628	1.883	0.000	-2.510	-0.000	0.000
7950	7888	7887	7947	3	0.628	1.883	0.000	-2.510	-0.000	0.000
7949	7888	7887	7947	3	0.628	1.883	0.000	-2.510	-0.000	0.000
7950	7888	7887	7948	3	0.628	1.883	0.000	-2.510	-0.000	0.000
7950	7888	7887	7886	3	-4.096	5.088	2.966	-3.958	-0.000	0.000
7949	7888	7887	7886	3	-4.096	5.088	2.966	-3.958	-0.000	0.000
7948	7887	7888	7889	3	0.979	2.937	0.000	-3.916	-0.000	0.000
7947	7887	7888	7889	3	0.979	2.937	0.000	-3.916	-0.000	0.000
7948	7887	7886	7903	3	1.172	3.515	0.000	-4.686	-0.000	0.000
7944	7885	7886	7903	3	1.172	3.515	0.000	-4.686	-0.000	0.000
7947	7887	7886	7903	3	1.172	3.515	0.000	-4.686	-0.000	0.000
7945	7885	7886	7903	3	1.172	3.515	0.000	-4.686	-0.000	0.000
7946	7885	7886	7903	3	1.172	3.515	0.000	-4.686	-0.000	0.000
7947	7887	7886	7885	3	1.172	3.515	0.000	-4.686	-0.000	0.000
7945	7885	7886	7887	3	1.172	3.515	0.000	-4.686	-0.000	0.000
7948	7887	7886	7885	3	1.172	3.515	0.000	-4.686	-0.000	0.000
7946	7885	7886	7887	3	1.172	3.515	0.000	-4.686	-0.000	0.000
7944	7885	7886	7887	3	1.172	3.515	0.000	-4.686	-0.000	0.000
7949	7888	7889	7890	3	1.590	4.770	0.000	-6.360	-0.000	0.000
7950	7888	7889	7890	3	1.590	4.770	0.000	-6.360	-0.000	0.000
7955	7898	7897	7899	3	0.0	0.0	0.0	-0.0	-0.0	0.0
7955	7898	7897	7896	3	0.0	0.0	0.0	-0.0	-0.0	0.0
7898	7897	7896	7895	3	0.0	0.0	0.0	-0.0	-0.0	0.0
7925	7926	7915	7914	3	2.874	0.582	2.092	-5.548	-0.000	0.000
7925	7926	7915	7916	3	1.046	-1.046	0.000	-0.000	-0.000	0.000
7889	7888	7887	7886	3	16.736	-16.736	0.000	-0.000	-0.000	0.000
7925	7919	7916	7915	3	1.046	-1.046	0.000	-0.000	-0.000	0.000
7925	7919	7916	7917	3	9.079	0.000	-9.079	-0.000	-0.000	0.000
7994	7993	7992	7991	3	30.334	0.000	-30.334	-0.000	-0.000	0.000
7993	8001	8002	7990	3	30.334	0.000	-30.334	-0.000	-0.000	0.000
7993	7992	7991	7990	3	30.334	0.000	-30.334	-0.000	-0.000	0.000
8014	8013	8012	8011	3	21.738	2.408	-16.966	-7.180	-0.000	0.000
8010	8009	8008	8007	3	21.738	2.408	-16.966	-7.180	-0.000	0.000
8011	8010	8009	8008	3	21.738	2.408	-16.966	-7.180	-0.000	0.000
8012	8011	8010	8009	3	21.738	2.408	-16.966	-7.180	-0.000	0.000
8013	8012	8011	8010	3	21.738	2.408	-16.966	-7.180	-0.000	0.000
8009	8008	8007	8006	3	58.576	0.000	-58.576	-0.000	-0.000	0.000
8008	8007	8006	8005	3	16.027	-4.391	-14.029	2.393	-0.000	0.000
8007	8006	8005	8004	3	30.334	0.000	-30.334	-0.000	-0.000	0.000
8016	8015	8014	8013	3	58.576	0.000	-58.576	-0.000	-0.000	0.000
8001	7993	7994	8000	3	9.079	0.000	-9.079	-0.000	-0.000	0.000
8000	7994	7993	7992	3	9.079	0.000	-9.079	-0.000	-0.000	0.000
8001	7993	7994	7995	3	9.079	0.000	-9.079	-0.000	-0.000	0.000
7995	7994	7993	7992	3	9.079	0.000	-9.079	-0.000	-0.000	0.000
8000	7994	7995	7996	3	30.334	0.000	-30.334	-0.000	-0.000	0.000
8001	7993	7992	7991	3	30.334	0.000	-30.334	-0.000	-0.000	0.000
7999	8000	7994	7993	3	30.334	0.000	-30.334	-0.000	-0.000	0.000
8002	8001	7993	7994	3	30.334	0.000	-30.334	-0.000	-0.000	0.000
7996	7995	7994	7993	3	30.334	0.000	-30.334	-0.000	-0.000	0.000
7999	8000	7994	7995	3	30.334	0.000	-30.334	-0.000	-0.000	0.000
8002	8001	7993	7992	3	30.334	0.000	-30.334	-0.000	-0.000	0.000
8042	8006	8007	8008	3	16.027	-4.391	-14.029	2.393	-0.000	0.000
7997	7999	8000	7994	3	30.334	0.000	-30.334	-0.000	-0.000	0.000
7997	7996	7995	7994	3	30.334	0.000	-30.334	-0.000	-0.000	0.000
8043	8042	8006	8007	3	30.334	0.000	-30.334	-0.000	-0.000	0.000
8032	8027	8028	8029	3	30.334	0.000	-30.334	-0.000	-0.000	0.000
8043	8042	8006	8005	3	30.334	0.000	-30.334	-0.000	-0.000	0.000
8002	7990	7991	7992	3	30.334	0.000	-30.334	-0.000	-0.000	0.000
8042	8043	8003	8004	3	30.334	0.000	-30.334	-0.000	-0.000	0.000
8032	8031	8030	8029	3	30.334	0.000	-30.334	-0.000	-0.000	0.000
8031	8030	8029	8028	3	30.334	0.000	-30.334	-0.000	-0.000	0.000
8030	8029	8028	8027	3	30.334	0.000	-30.334	-0.000	-0.000	0.000
8006	8005	8004	8003	3	30.334	0.000	-30.334	-0.000	-0.000	0.000
8006	8042	8043	8003	3	30.334	0.000	-30.334	-0.000	-0.000	0.000
8043	8003	8004	8005	3	30.334	0.000	-30.334	-0.000	-0.000	0.000
8042	8006	8005	8004	3	30.334	0.000	-30.334	-0.000	-0.000	0.000
8031	8032	8027	8028	3	30.334	0.000	-30.334	-0.000	-0.000	0.000
8000	7999	7997	7996	3	30.334	0.000	-30.334	-0.000	-0.000	0.000
8001	8002	7990	7991	3	30.334	0.000	-30.334	-0.000	-0.000	0.000
8030	8031	8032	8027	3	30.334	0.000	-30.334	-0.000	-0.000	0.000
7999	7997	7996	7995	3	30.334	0.000	-30.334	-0.000	-0.000	0.000
8031	8032	8027	8026	3	30.334	0.000	-30.334	-0.000	-0.000	0.000
8029	8028	8027	8026	3	30.334	0.000	-30.334	-0.000	-0.000	0.000
8042	8043	8003	7986	3	30.334	0.000	-30.334	-0.000	-0.000	0.000
8005	8004	8003	7986	3	30.334	0.000	-30.334	-0.000	-0.000	0.000
8000	7999	7997	7998	3	0.0	0.0	0.0	-0.0	-0.0	0.0
7992	7991	7990	7989	3	30.334	0.000	-30.334	-0.000	-0.000	0.000
8001	8002	7990	7989	3	30.334	0.000	-30.334	-0.000	-0.000	0.000
8032	8027	8026	8015	3	0.000	0.000	0.000	-0.000	-0.000	0.000
8028	8027	8026	8015	3	0.000	0.000	0.000	-0.000	-0.000	0.000
8032	8027	8026	8025	3	0.000	0.000	0.000	-0.000	-0.000	0.000
8028	8027	8026	8025	3	0.000	0.000	0.000	-0.000	-0.000	0.000
8043	8003	7986	7987	3	5.184	35.932	-14.355	-26.761	-0.000	0.000
8004	8003	7986	7987	3	5.184	35.932	-14.355	-26.761	-0.000	0.000
8004	8003	7986	7985	3	5.184	35.932	-14.355	-26.761	-0.000	0.000
8043	8003	7986	7985	3	5.184	35.932	-14.355	-26.761	-0.000	0.000
7991	7990	7989	7988	3	12.552	0.000	-12.552	-0.000	-0.000	0.000
8002	7990	7989	7988	3	12.552	0.000	-12.552	-0.000	-0.000	0.000
8027	8026	8015	8014	3	6.322	-2.485	0.707	-4.544	-0.000	0.000
8027	8026	8015	8016	3	0.527	-6.397	-1.695	7.565	-0.000	0.000
8027	8026	8025	8019	3	1.715	2.845	1.046	-5.607	-0.000	0.000
8003	7986	7987	7988	3	1.789	3.492	0.536	-5.816	-0.000	0.000
7990	7989	7988	7987	3	1.715	2.845	1.046	-5.607	-0.000	0.000
8033	8026	8027	8028	3	0.000	0.000	0.000	-0.000	-0.000	0.000
8033	8026	8027	8032	3	0.000	0.000	0.000	-0.000	-0.000	0.000
8033	8026	8015	8014	3	6.322	-2.485	0.707	-4.544	-0.000	0.000
8033	8026	8015	8016	3	0.527	-6.397	-1.695	7.565	-0.000	0.000
8033	8026	8025	8019	3	1.715	2.845	1.046	-5.607	-0.000	0.000
8015	8014	8013	8012	3	21.738	2.408	-16.966	-7.180	-0.000	0.000
8020	8019	8016	8015	3	21.738	2.408	-16.966	-7.180	-0.000	0.000
8020	8019	8016	8017	3	-0.778	-2.335	0.000	3.113	-0.000	0.000
8041	8009	8008	8007	3	58.576	0.000	-58.576	-0.000	-0.000	0.000
8037	8011	8010	8009	3	58.576	0.000	-58.576	-0.000	-0.000	0.000
8041	8009	8010	8011	3	58.576	0.000	-58.576	-0.000	-0.000	0.000
8037	8011	8012	8013	3	58.576	0.000	-58.576	-0.000	-0.000	0.000
8026	8015	8014	8013	3	-0.778	-2.335	0.000	3.113	-0.000	0.000
8026	8015	8016	8019	3	58.576	0.000	-58.576	-0.000	-0.000	0.000
8026	8015	8016	8017	3	58.576	0.000	-58.576	-0.000	-0.000	0.000
8038	8041	8009	8008	3	0.527	-6.397	-1.695	7.565	-0.000	0.000
8038	8037	8011	8012	3	0.527	-6.397	-1.695	7.565	-0.000	0.000
8038	8037	8011	8010	3	0.527	-6.397	-1.695	7.565	-0.000	0.000
8038	8041	8009	8010	3	0.527	-6.397	-1.695	7.565	-0.000	0.000
8041	8038	8037	8011	3	2.301	-1.464	0.837	-1.674	-0.000	0.000
8040	8038	8041	8009	3	2.301	-1.464	0.837	-1.674	-0.000	0.000
8037	8038	8041	8009	3	2.301	-1.464	0.837	-1.674	-0.000	0.000
8039	8038	8041	8009	3	2.301	-1.464	0.837	-1.674	-0.000	0.000
8040	8038	8037	8011	3	2.301	-1.464	0.837	-1.674	-0.000	0.000
8039	8038	8037	8011	3	2.301	-1.464	0.837	-1.674	-0.000	0.000
7988	7987	7986	7985	3	1.789	3.492	0.536	-5.816	-0.000	0.000
8026	8025	8019	8016	3	30.334	0.000	-30.334	-0.000	-0.000	0.000
8026	8025	8019	8020	3	30.334	0.000	-30.334	-0.000	-0.000	0.000
8019	8016	8015	8014	3	58.576	0.000	-58.576	-0.000	-0.000	0.000
8019	8025	8026	8015	3	1.715	2.845	1.046	-5.607	-0.000	0.000
8017	8016	8015	8014	3	58.576	0.000	-58.576	-0.000	-0.000	0.000
8021	8020	8019	8016	3	58.576	0.000	-58.576	-0.000	-0.000	0.000
8023	8020	8019	8016	3	58.576	0.000	-58.576	-0.000	-0.000	0.000
8034	8033	8026	8027	3	0.000	0.000	0.000	-0.000	-0.000	0.000
8035	8033	8026	8027	3	0.000	0.000	0.000	-0.000	-0.000	0.000
8036	8033	8026	8027	3	0.000	0.000	0.000	-0.000	-0.000	0.000
8035	8033	8026	8015	3	0.000	0.000	0.000	-0.000	-0.000	0.000
8034	8033	8026	8015	3	0.000	0.000	0.000	-0.000	-0.000	0.000
8036	8033	8026	8015	3	0.000	0.000	0.000	-0.000	-0.000	0.000
8035	8033	8026	8025	3	1.130	3.389	0.000	-4.519	-0.000	0.000
8036	8033	8026	8025	3	1.130	3.389	0.000	-4.519	-0.000	0.000
8034	8033	8026	8025	3	1.130	3.389	0.000	-4.519	-0.000	0.000
8064	8010	8009	8008	3	58.576	0.000	-58.576	-0.000	-0.000	0.000
8064	8010	8011	8012	3	58.576	0.000	-58.576	-0.000	-0.000	0.000
8064	8010	8011	8037	3	58.576	0.000	-58.576	-0.000	-0.000	0.000
8064	8010	8009	8041	3	58.576	0.000	-58.576	-0.000	-0.000	0.000
8053	7995	7994	7993	3	30.334	0.000	-30.334	-0.000	-0.000	0.000
8052	7992	7993	7994	3	30.334	0.000	-30.334	-0.000	-0.000	0.000
8058	8001	7993	7994	3	30.334	0.000	-30.334	-0.000	-0.000	0.000
8057	8000	7994	7993	3	30.334	0.000	-30.334	-0.000	-0.000	0.000
8057	8000	7994	7995	3	30.334	0.000	-30.334	-0.000	-0.000	0.000
8053	7995	7994	8000	3	30.334	0.000	-30.334	-0.000	-0.000	0.000
8052	7992	7993	8001	3	30.334	0.000	-30.334	-0.000	-0.000	0.000
8058	8001	7993	7992	3	30.334	0.000	-30.334	-0.000	-0.000	0.000
8051	7991	7992	7993	3	30.334	0.000	-30.334	-0.000	-0.000	0.000
8059	8002	8001	7993	3	30.334	0.000	-30.334	-0.000	-0.000	0.000
8054	7996	7995	7994	3	30.334	0.000	-30.334	-0.000	-0.000	0.000
8056	7999	8000	7994	3	30.334	0.000	-30.334	-0.000	-0.000	0.000
8061	8005	8006	8007	3	30.334	0.000	-30.334	-0.000	-0.000	0.000
8083	8042	8006	8007	3	30.334	0.000	-30.334	-0.000	-0.000	0.000
8068	8028	8029	8030	3	30.334	0.000	-30.334	-0.000	-0.000	0.000
8056	7999	7997	7996	3	30.334	0.000	-30.334	-0.000	-0.000	0.000
8071	8031	8030	8029	3	30.334	0.000	-30.334	-0.000	-0.000	0.000
8083	8042	8043	8003	3	30.334	0.000	-30.334	-0.000	-0.000	0.000
8069	8029	8028	8027	3	30.334	0.000	-30.334	-0.000	-0.000	0.000
8084	8043	8042	8006	3	30.334	0.000	-30.334	-0.000	-0.000	0.000
8070	8030	8029	8028	3	30.334	0.000	-30.334	-0.000	-0.000	0.000
8059	8002	7990	7991	3	30.334	0.000	-30.334	-0.000	-0.000	0.000
8058	8001	8002	7990	3	30.334	0.000	-30.334	-0.000	-0.000	0.000
8083	8042	8006	8005	3	30.334	0.000	-30.334	-0.000	-0.000	0.000
8084	8043	8003	8004	3	30.334	0.000	-30.334	-0.000	-0.000	0.000
8071	8031	8032	8027	3	30.334	0.000	-30.334	-0.000	-0.000	0.000
8068	8028	8027	8032	3	30.334	0.000	-30.334	-0.000	-0.000	0.000
8053	7995	7996	7997	3	30.334	0.000	-30.334	-0.000	-0.000	0.000
8054	7996	7997	7999	3	30.334	0.000	-30.334	-0.000	-0.000	0.000
8051	7991	7990	8002	3	30.334	0.000	-30.334	-0.000	-0.000	0.000
8060	8004	8003	8043	3	30.334	0.000	-30.334	-0.000	-0.000	0.000
8060	8004	8005	8006	3	30.334	0.000	-30.334	-0.000	-0.000	0.000
8057	8000	7999	7997	3	30.334	0.000	-30.334	-0.000	-0.000	0.000
8061	8005	8006	8042	3	30.334	0.000	-30.334	-0.000	-0.000	0.000
8070	8030	8031	8032	3	30.334	0.000	-30.334	-0.000	-0.000	0.000
8072	8032	8031	8030	3	30.334	0.000	-30.334	-0.000	-0.000	0.000
8069	8029	8030	8031	3	30.334	0.000	-30.334	-0.000	-0.000	0.000
8072	8032	8027	8028	3	30.334	0.000	-30.334	-0.000	-0.000	0.000
8052	7992	7991	7990	3	30.334	0.000	-30.334	-0.000	-0.000	0.000
8061	8005	8004	8003	3	30.334	0.000	-30.334	-0.000	-0.000	0.000
8072	8032	8027	8026	3	30.334	0.000	-30.334	-0.000	-0.000	0.000
8068	8028	8027	8026	3	30.334	0.000	-30.334	-0.000	-0.000	0.000
8061	8005	8004	8060	3	30.334	0.000	-30.334	-0.000	-0.000	0.000
8084	8043	8042	8083	3	30.334	0.000	-30.334	-0.000	-0.000	0.000
8070	8030	8029	8069	3	30.334	0.000	-30.334	-0.000	-0.000	0.000
8054	7996	7995	8053	3	30.334	0.000	-30.334	-0.000	-0.000	0.000
8059	8002	8001	8058	3	30.334	0.000	-30.334	-0.000	-0.000	0.000
8057	8000	7999	8056	3	30.334	0.000	-30.334	-0.000	-0.000	0.000
8069	8029	8028	8068	3	30.334	0.000	-30.334	-0.000	-0.000	0.000
8052	7992	7991	8051	3	30.334	0.000	-30.334	-0.000	-0.000	0.000
8071	8031	8030	8070	3	30.334	0.000	-30.334	-0.000	-0.000	0.000
8072	8032	8031	8071	3	30.334	0.000	-30.334	-0.000	-0.000	0.000
8084	8043	8003	7986	3	30.334	0.000	-30.334	-0.000	-0.000	0.000
8060	8004	8003	7986	3	30.334	0.000	-30.334	-0.000	-0.000	0.000
8054	7996	7997	7998	3	0.0	0.0	0.0	-0.0	-0.0	0.0
8056	7999	7997	7998	3	0.0	0.0	0.0	-0.0	-0.0	0.0
8051	7991	7990	7989	3	30.334	0.000	-30.334	-0.000	-0.000	0.000
8059	8002	7990	7989	3	30.334	0.000	-30.334	-0.000	-0.000	0.000
8065	8012	8011	8010	3	58.576	0.000	-58.576	-0.000	-0.000	0.000
8065	8012	8013	8014	3	58.576	0.000	-58.576	-0.000	-0.000	0.000
8067	8014	8013	8012	3	58.576	0.000	-58.576	-0.000	-0.000	0.000
8066	8013	8012	8011	3	58.576	0.000	-58.576	-0.000	-0.000	0.000
8063	8008	8009	8010	3	58.576	0.000	-58.576	-0.000	-0.000	0.000
8062	8007	8008	8009	3	58.576	0.000	-58.576	-0.000	-0.000	0.000
8063	8008	8007	8006	3	58.576	0.000	-58.576	-0.000	-0.000	0.000
8066	8013	8014	8015	3	58.576	0.000	-58.576	-0.000	-0.000	0.000
8065	8012	8011	8037	3	58.576	0.000	-58.576	-0.000	-0.000	0.000
8063	8008	8009	8041	3	58.576	0.000	-58.576	-0.000	-0.000	0.000
8063	8008	8007	8062	3	58.576	0.000	-58.576	-0.000	-0.000	0.000
8066	8013	8012	8065	3	58.576	0.000	-58.576	-0.000	-0.000	0.000
8067	8014	8013	8066	3	58.576	0.000	-58.576	-0.000	-0.000	0.000
8062	8007	8006	8042	3	-0.778	-2.335	0.000	3.113	-0.000	0.000
8062	8007	8006	8005	3	-0.778	-2.335	0.000	3.113	-0.000	0.000
8067	8014	8015	8016	3	58.576	0.000	-58.576	-0.000	-0.000	0.000
8067	8014	8015	8026	3	58.576	0.000	-58.576	-0.000	-0.000	0.000
8081	8041	8009	8008	3	-0.778	-2.335	0.000	3.113	-0.000	0.000
8081	8041	8009	8010	3	-0.778	-2.335	0.000	3.113	-0.000	0.000
8082	8041	8009	8008	3	-0.778	-2.335	0.000	3.113	-0.000	0.000
8074	8037	8011	8012	3	-0.778	-2.335	0.000	3.113	-0.000	0.000
8082	8041	8009	8010	3	-0.778	-2.335	0.000	3.113	-0.000	0.000
8073	8037	8011	8010	3	-0.778	-2.335	0.000	3.113	-0.000	0.000
8074	8037	8011	8010	3	-0.778	-2.335	0.000	3.113	-0.000	0.000
8073	8037	8011	8012	3	-0.778	-2.335	0.000	3.113	-0.000	0.000
8076	8039	8038	8041	3	0.628	1.883	0.000	-2.510	-0.000	0.000
8075	8039	8038	8040	3	0.628	1.883	0.000	-2.510	-0.000	0.000
8075	8039	8038	8037	3	0.628	1.883	0.000	-2.510	-0.000	0.000
8077	8039	8038	8040	3	0.628	1.883	0.000	-2.510	-0.000	0.000
8079	8040	8038	8037	3	0.628	1.883	0.000	-2.510	-0.000	0.000
8078	8040	8038	8037	3	0.628	1.883	0.000	-2.510	-0.000	0.000
8077	8039	8038	8037	3	0.628	1.883	0.000	-2.510	-0.000	0.000
8079	8040	8038	8039	3	0.628	1.883	0.000	-2.510	-0.000	0.000
8076	8039	8038	8037	3	0.628	1.883	0.000	-2.510	-0.000	0.000
8081	8041	8038	8037	3	0.628	1.883	0.000	-2.510	-0.000	0.000
8081	8041	8038	8039	3	0.628	1.883	0.000	-2.510	-0.000	0.000
8074	8037	8038	8039	3	0.628	1.883	0.000	-2.510	-0.000	0.000
8077	8039	8038	8041	3	0.628	1.883	0.000	-2.510	-0.000	0.000
8074	8037	8038	8040	3	0.628	1.883	0.000	-2.510	-0.000	0.000
8082	8041	8038	8039	3	0.628	1.883	0.000	-2.510	-0.000	0.000
8078	8040	8038	8041	3	0.628	1.883	0.000	-2.510	-0.000	0.000
8079	8040	8038	8041	3	0.628	1.883	0.000	-2.510	-0.000	0.000
8080	8040	8038	8037	3	0.628	1.883	0.000	-2.510	-0.000	0.000
8073	8037	8038	8040	3	0.628	1.883	0.000	-2.510	-0.000	0.000
8073	8037	8038	8039	3	0.628	1.883	0.000	-2.510	-0.000	0.000
8078	8040	8038	8039	3	0.628	1.883	0.000	-2.510	-0.000	0.000
8074	8037	8038	8041	3	0.628	1.883	0.000	-2.510	-0.000	0.000
8082	8041	8038	8040	3	0.628	1.883	0.000	-2.510	-0.000	0.000
8076	8039	8038	8040	3	0.628	1.883	0.000	-2.510	-0.000	0.000
8075	8039	8038	8041	3	0.628	1.883	0.000	-2.510	-0.000	0.000
8082	8041	8038	8037	3	0.628	1.883	0.000	-2.510	-0.000	0.000
8073	8037	8038	8041	3	0.628	1.883	0.000	-2.510	-0.000	0.000
8080	8040	8038	8039	3	0.628	1.883	0.000	-2.510	-0.000	0.000
8081	8041	8038	8040	3	0.628	1.883	0.000	-2.510	-0.000	0.000
8080	8040	8038	8041	3	0.628	1.883	0.000	-2.510	-0.000	0.000
8049	7988	7987	8048	3	0.628	1.883	0.000	-2.510	-0.000	0.000
8050	7988	7987	8047	3	0.628	1.883	0.000	-2.510	-0.000	0.000
8049	7988	7987	8047	3	0.628	1.883	0.000	-2.510	-0.000	0.000
8050	7988	7987	8048	3	0.628	1.883	0.000	-2.510	-0.000	0.000
8050	7988	7987	7986	3	-4.096	5.088	2.966	-3.958	-0.000	0.000
8049	7988	7987	7986	3	-4.096	5.088	2.966	-3.958	-0.000	0.000
8048	7987	7988	7989	3	0.979	2.937	0.000	-3.916	-0.000	0.000
8047	7987	7988	7989	3	0.979	2.937	0.000	-3.916	-0.000	0.000
8048	7987	7986	8003	3	1.172	3.515	0.000	-4.686	-0.000	0.000
8044	7985	7986	8003	3	1.172	3.515	0.000	-4.686	-0.000	0.000
8047	7987	7986	8003	3	1.172	3.515	0.000	-4.686	-0.000	0.000
8045	7985	7986	8003	3	1.172	3.515	0.000	-4.686	-0.000	0.000
8046	7985	7986	8003	3	1.172	3.515	0.000	-4.686	-0.000	0.000
8047	7987	7986	7985	3	1.172	3.515	0.000	-4.686	-0.000	0.000
8045	7985	7986	7987	3	1.172	3.515	0.000	-4.686	-0.000	0.000
8048	7987	7986	7985	3	1.172	3.515	0.000	-4.686	-0.000	0.000
8046	7985	7986	7987	3	1.172	3.515	0.000	-4.686	-0.000	0.000
8044	7985	7986	7987	3	1.172	3.515	0.000	-4.686	-0.000	0.000
8049	7988	7989	7990	3	1.590	4.770	0.000	-6.360	-0.000	0.000
8050	7988	7989	7990	3	1.590	4.770	0.000	-6.360	-0.000	0.000
8055	7998	7997	7999	3	0.0	0.0	0.0	-0.0	-0.0	0.0
8055	7998	7997	7996	3	0.0	0.0	0.0	-0.0	-0.0	0.0
7998	7997	7996	7995	3	0.0	0.0	0.0	-0.0	-0.0	0.0
8025	8026	8015	8014	3	2.874	0.582	2.092	-5.548	-0.000	0.000
8025	8026	8015	8016	3	1.046	-1.046	0.000	-0.000	-0.000	0.000
7989	7988	7987	7986	3	16.736	-16.736	0.000	-0.000	-0.000	0.000
8025	8019	8016	8015	3	1.046	-1.046	0.000	-0.000	-0.000	0.000
8025	8019	8016	8017	3	9.079	0.000	-9.079	-0.000	-0.000	0.000
8094	8093	8092	8091	3	30.334	0.000	-30.334	-0.000	-0.000	0.000
8093	8101	8102	8090	3	30.334	0.000	-30.334	-0.000	-0.000	0.000
8093	8092	8091	8090	3	30.334	0.000	-30.334	-0.000	-0.000	0.000
8114	8113	8112	8111	3	21.738	2.408	-16.966	-7.180	-0.000	0.000
8110	8109	8108	8107	3	21.738	2.408	-16.966	-7.180	-0.000	0.000
8111	8110	8109	8108	3	21.738	2.408	-16.966	-7.180	-0.000	0.000
8112	8111	8110	8109	3	21.738	2.408	-16.966	-7.180	-0.000	0.000
8113	8112	8111	8110	3	21.738	2.408	-16.966	-7.180	-0.000	0.000
8109	8108	8107	8106	3	58.576	0.000	-58.576	-0.000	-0.000	0.000
8108	8107	8106	8105	3	16.027	-4.391	-14.029	2.393	-0.000	0.000
8107	8106	8105	8104	3	30.334	0.000	-30.334	-0.000	-0.000	0.000
8116	8115	8114	8113	3	58.576	0.000	-58.576	-0.000	-0.000	0.000
8101	8093	8094	8100	3	9.079	0.000	-9.079	-0.000	-0.000	0.000
8100	8094	8093	8092	3	9.079	0.000	-9.079	-0.000	-0.000	0.000
8101	8093	8094	8095	3	9.079	0.000	-9.079	-0.000	-0.000	0.000
8095	8094	8093	8092	3	9.079	0.000	-9.079	-0.000	-0.000	0.000
8100	8094	8095	8096	3	30.334	0.000	-30.334	-0.000	-0.000	0.000
8101	8093	8092	8091	3	30.334	0.000	-30.334	-0.000	-0.000	0.000
8099	8100	8094	8093	3	30.334	0.000	-30.334	-0.000	-0.000	0.000
8102	8101	8093	8094	3	30.334	0.000	-30.334	-0.000	-0.000	0.000
8096	8095	8094	8093	3	30.334	0.000	-30.334	-0.000	-0.000	0.000
8099	8100	8094	8095	3	30.334	0.000	-30.334	-0.000	-0.000	0.000
8102	8101	8093	8092	3	30.334	0.000	-30.334	-0.000	-0.000	0.000
8142	8106	8107	8108	3	16.027	-4.391	-14.029	2.393	-0.000	0.000
8097	8099	8100	8094	3	30.334	0.000	-30.334	-0.000	-0.000	0.000
8097	8096	8095	8094	3	30.334	0.000	-30.334	-0.000	-0.000	0.000
8143	8142	8106	8107	3	30.334	0.000	-30.334	-0.000	-0.000	0.000
8132	8127	8128	8129	3	30.334	0.000	-30.334	-0.000	-0.000	0.000
8143	8142	8106	8105	3	30.334	0.000	-30.334	-0.000	-0.000	0.000
8102	8090	8091	8092	3	30.334	0.000	-30.334	-0.000	-0.000	0.000
8142	8143	8103	8104	3	30.334	0.000	-30.334	-0.000	-0.000	0.000
8132	8131	8130	8129	3	30.334	0.000	-30.334	-0.000	-0.000	0.000
8131	8130	8129	8128	3	30.334	0.000	-30.334	-0.000	-0.000	0.000
8130	8129	8128	8127	3	30.334	0.000	-30.334	-0.000	-0.000	0.000
8106	8105	8104	8103	3	30.334	0.000	-30.334	-0.000	-0.000	0.000
8106	8142	8143	8103	3	30.334	0.000	-30.334	-0.000	-0.000	0.000
8143	8103	8104	8105	3	30.334	0.000	-30.334	-0.000	-0.000	0.000
8142	8106	8105	8104	3	30.334	0.000	-30.334	-0.000	-0.000	0.000
8131	8132	8127	8128	3	30.334	0.000	-30.334	-0.000	-0.000	0.000
8100	8099	8097	8096	3	30.334	0.000	-30.334	-0.000	-0.000	0.000
8101	8102	8090	8091	3	30.334	0.000	-30.334	-0.000	-0.000	0.000
8130	8131	8132	8127	3	30.334	0.000	-30.334	-0.000	-0.000	0.000
8099	8097	8096	8095	3	30.334	0.000	-30.334	-0.000	-0.000	0.000
8131	8132	8127	8126	3	30.334	0.000	-30.334	-0.000	-0.000	0.000
8129	8128	8127	8126	3	30.334	0.000	-30.334	-0.000	-0.000	0.000
8142	8143	8103	8086	3	30.334	0.000	-30.334	-0.000	-0.000	0.000
8105	8104	8103	8086	3	30.334	0.000	-30.334	-0.000	-0.000	0.000
8100	8099	8097	8098	3	0.0	0.0	0.0	-0.0	-0.0	0.0
8092	8091	8090	8089	3	30.334	0.000	-30.334	-0.000	-0.000	0.000
8101	8102	8090	8089	3	30.334	0.000	-30.334	-0.000	-0.000	0.000
8132	8127	8126	8115	3	0.000	0.000	0.000	-0.000	-0.000	0.000
8128	8127	8126	8115	3	0.000	0.000	0.000	-0.000	-0.000	0.000
8132	8127	8126	8125	3	0.000	0.000	0.000	-0.000	-0.000	0.000
8128	8127	8126	8125	3	0.000	0.000	0.000	-0.000	-0.000	0.000
8143	8103	8086	8087	3	5.184	35.932	-14.355	-26.761	-0.000	0.000
8104	8103	8086	8087	3	5.184	35.932	-14.355	-26.761	-0.000	0.000
8104	8103	8086	8085	3	5.184	35.932	-14.355	-26.761	-0.000	0.000
8143	8103	8086	8085	3	5.184	35.932	-14.355	-26.761	-0.000	0.000
8091	8090	8089	8088	3	12.552	0.000	-12.552	-0.000	-0.000	0.000
8102	8090	8089	8088	3	12.552	0.000	-12.552	-0.000	-0.000	0.000
8127	8126	8115	8114	3	6.322	-2.485	0.707	-4.544	-0.000	0.000
8127	8126	8115	8116	3	0.527	-6.397	-1.695	7.565	-0.000	0.000
8127	8126	8125	8119	3	1.715	2.845	1.046	-5.607	-0.000	0.000
8103	8086	8087	8088	3	1.789	3.492	0.536	-5.816	-0.000	0.000
8090	8089	8088	8087	3	1.715	2.845	1.046	-5.607	-0.000	0.000
8133	8126	8127	8128	3	0.000	0.000	0.000	-0.000	-0.000	0.000
8133	8126	8127	8132	3	0.000	0.000	0.000	-0.000	-0.000	0.000
8133	8126	8115	8114	3	6.322	-2.485	0.707	-4.544	-0.000	0.000
8133	8126	8115	8116	3	0.527	-6.397	-1.695	7.565	-0.000	0.000
8133	8126	8125	8119	3	1.715	2.845	1.046	-5.607	-0.000	0.000
8115	8114	8113	8112	3	21.738	2.408	-16.966	-7.180	-0.000	0.000
8120	8119	8116	8115	3	21.738	2.408	-16.966	-7.180	-0.000	0.000
8120	8119	8116	8117	3	-0.778	-2.335	0.000	3.113	-0.000	0.000
8141	8109	8108	8107	3	58.576	0.000	-58.576	-0.000	-0.000	0.000
8137	8111	8110	8109	3	58.576	0.000	-58.576	-0.000	-0.000	0.000
8141	8109	8110	8111	3	58.576	0.000	-58.576	-0.000	-0.000	0.000
8137	8111	8112	8113	3	58.576	0.000	-58.576	-0.000	-0.000	0.000
8126	8115	8114	8113	3	-0.778	-2.335	0.000	3.113	-0.000	0.000
8126	8115	8116	8119	3	58.576	0.000	-58.576	-0.000	-0.000	0.000
8126	8115	8116	8117	3	58.576	0.000	-58.576	-0.000	-0.000	0.000
8138	8141	8109	8108	3	0.527	-6.397	-1.695	7.565	-0.000	0.000
8138	8137	8111	8112	3	0.527	-6.397	-1.695	7.565	-0.000	0.000
8138	8137	8111	8110	3	0.527	-6.397	-1.695	7.565	-0.000	0.000
8138	8141	8109	8110	3	0.527	-6.397	-1.695	7.565	-0.000	0.000
8141	8138	8137	8111	3	2.301	-1.464	0.837	-1.674	-0.000	0.000
8140	8138	8141	8109	3	2.301	-1.464	0.837	-1.674	-0.000	0.000
8137	8138	8141	8109	3	2.301	-1.464	0.837	-1.674	-0.000	0.000
8139	8138	8141	8109	3	2.301	-1.464	0.837	-1.674	-0.000	0.000
8140	8138	8137	8111	3	2.301	-1.464	0.837	-1.674	-0.000	0.000
8139	8138	8137	8111	3	2.301	-1.464	0.837	-1.674	-0.000	0.000
8088	8087	8086	8085	3	1.789	3.492	0.536	-5.816	-0.000	0.000
8126	8125	8119	8116	3	30.334	0.000	-30.334	-0.000	-0.000	0.000
8126	8125	8119	8120	3	30.334	0.000	-30.334	-0.000	-0.000	0.000
8119	8116	8115	8114	3	58.576	0.000	-58.576	-0.000	-0.000	0.000
8119	8125	8126	8115	3	1.715	2.845	1.046	-5.607	-0.000	0.000
8117	8116	8115	8114	3	58.576	0.000	-58.576	-0.000	-0.000	0.000
8121	8120	8119	8116	3	58.576	0.000	-58.576	-0.000	-0.000	0.000
8123	8120	8119	8116	3	58.576	0.000	-58.576	-0.000	-0.000	0.000
8134	8133	8126	8127	3	0.000	0.000	0.000	-0.000	-0.000	0.000
8135	8133	8126	8127	3	0.000	0.000	0.000	-0.000	-0.000	0.000
8136	8133	8126	8127	3	0.000	0.000	0.000	-0.000	-0.000	0.000
8135	8133	8126	8115	3	0.000	0.000	0.000	-0.000	-0.000	0.000
8134	8133	8126	8115	3	0.000	0.000	0.000	-0.000	-0.000	0.000
8136	8133	8126	8115	3	0.000	0.000	0.000	-0.000	-0.000	0.000
8135	8133	8126	8125	3	1.130	3.389	0.000	-4.519	-0.000	0.000
8136	8133	8126	8125	3	1.130	3.389	0.000	-4.519	-0.000	0.000
8134	8133	8126	8125	3	1.130	3.389	0.000	-4.519	-0.000	0.000
8164	8110	8109	8108	3	58.576	0.000	-58.576	-0.000	-0.000	0.000
8164	8110	8111	8112	3	58.576	0.000	-58.576	-0.000	-0.000	0.000
8164	8110	8111	8137	3	58.576	0.000	-58.576	-0.000	-0.000	0.000
8164	8110	8109	8141	3	58.576	0.000	-58.576	-0.000	-0.000	0.000
8153	8095	8094	8093	3	30.334	0.000	-30.334	-0.000	-0.000	0.000
8152	8092	8093	8094	3	30.334	0.000	-30.334	-0.000	-0.000	0.000
8158	8101	8093	8094	3	30.334	0.000	-30.334	-0.000	-0.000	0.000
8157	8100	8094	8093	3	30.334	0.000	-30.334	-0.000	-0.000	0.000
8157	8100	8094	8095	3	30.334	0.000	-30.334	-0.000	-0.000	0.000
8153	8095	8094	8100	3	30.334	0.000	-30.334	-0.000	-0.000	0.000
8152	8092	8093	8101	3	30.334	0.000	-30.334	-0.000	-0.000	0.000
8158	8101	8093	8092	3	30.334	0.000	-30.334	-0.000	-0.000	0.000
8151	8091	8092	8093	3	30.334	0.000	-30.334	-0.000	-0.000	0.000
8159	8102	8101	8093	3	30.334	0.000	-30.334	-0.000	-0.000	0.000
8154	8096	8095	8094	3	30.334	0.000	-30.334	-0.000	-0.000	0.000
8156	8099	8100	8094	3	30.334	0.000	-30.334	-0.000	-0.000	0.000
8161	8105	8106	8107	3	30.334	0.000	-30.334	-0.000	-0.000	0.000
8183	8142	8106	8107	3	30.334	0.000	-30.334	-0.000	-0.000	0.000
8168	8128	8129	8130	3	30.334	0.000	-30.334	-0.000	-0.000	0.000
8156	8099	8097	8096	3	30.334	0.000	-30.334	-0.000	-0.000	0.000
8171	8131	8130	8129	3	30.334	0.000	-30.334	-0.000	-0.000	0.000
8183	8142	8143	8103	3	30.334	0.000	-30.334	-0.000	-0.000	0.000
8169	8129	8128	8127	3	30.334	0.000	-30.334	-0.000	-0.000	0.000
8184	8143	8142	8106	3	30.334	0.000	-30.334	-0.000	-0.000	0.000
8170	8130	8129	8128	3	30.334	0.000	-30.334	-0.000	-0.000	0.000
8159	8102	8090	8091	3	30.334	0.000	-30.334	-0.000	-0.000	0.000
8158	8101	8102	8090	3	30.334	0.000	-30.334	-0.000	-0.000	0.000
8183	8142	8106	8105	3	30.334	0.000	-30.334	-0.000	-0.000	0.000
8184	8143	8103	8104	3	30.334	0.000	-30.334	-0.000	-0.000	0.000
8171	8131	8132	8127	3	30.334	0.000	-30.334	-0.000	-0.000	0.000
8168	8128	8127	8132	3	30.334	0.000	-30.334	-0.000	-0.000	0.000
8153	8095	8096	8097	3	30.334	0.000	-30.334	-0.000	-0.000	0.000
8154	8096	8097	8099	3	30.334	0.000	-30.334	-0.000	-0.000	0.000
8151	8091	8090	8102	3	30.334	0.000	-30.334	-0.000	-0.000	0.000
8160	8104	8103	8143	3	30.334	0.000	-30.334	-0.000	-0.000	0.000
8160	8104	8105	8106	3	30.334	0.000	-30.334	-0.000	-0.000	0.000
8157	8100	8099	8097	3	30.334	0.000	-30.334	-0.000	-0.000	0.000
8161	8105	8106	8142	3	30.334	0.000	-30.334	-0.000	-0.000	0.000
8170	8130	8131	8132	3	30.334	0.000	-30.334	-0.000	-0.000	0.000
8172	8132	8131	8130	3	30.334	0.000	-30.334	-0.000	-0.000	0.000
8169	8129	8130	8131	3	30.334	0.000	-30.334	-0.000	-0.000	0.000
8172	8132	8127	8128	3	30.334	0.000	-30.334	-0.000	-0.000	0.000
8152	8092	8091	8090	3	30.334	0.000	-30.334	-0.000	-0.000	0.000
8161	8105	8104	8103	3	30.334	0.000	-30.334	-0.000	-0.000	0.000
8172	8132	8127	8126	3	30.334	0.000	-30.334	-0.000	-0.000	0.000
8168	8128	8127	8126	3	30.334	0.000	-30.334	-0.000	-0.000	0.000
8161	8105	8104	8160	3	30.334	0.000	-30.334	-0.000	-0.000	0.000
8184	8143	8142	8183	3	30.334	0.000	-30.334	-0.000	-0.000	0.000
8170	8130	8129	8169	3	30.334	0.000	-30.334	-0.000	-0.000	0.000
8154	8096	8095	8153	3	30.334	0.000	-30.334	-0.000	-0.000	0.000
8159	8102	8101	8158	3	30.334	0.000	-30.334	-0.000	-0.000	0.000
8157	8100	8099	8156	3	30.334	0.000	-30.334	-0.000	-0.000	0.000
8169	8129	8128	8168	3	30.334	0.000	-30.334	-0.000	-0.000	0.000
8152	8092	8091	8151	3	30.334	0.000	-30.334	-0.000	-0.000	0.000
8171	8131	8130	8170	3	30.334	0.000	-30.334	-0.000	-0.000	0.000
8172	8132	8131	8171	3	30.334	0.000	-30.334	-0.000	-0.000	0.000
8184	8143	8103	8086	3	30.334	0.000	-30.334	-0.000	-0.000	0.000
8160	8104	8103	8086	3	30.334	0.000	-30.334	-0.000	-0.000	0.000
8154	8096	8097	8098	3	0.0	0.0	0.0	-0.0	-0.0	0.0
8156	8099	8097	8098	3	0.0	0.0	0.0	-0.0	-0.0	0.0
8151	8091	8090	8089	3	30.334	0.000	-30.334	-0.000	-0.000	0.000
8159	8102	8090	8089	3	30.334	0.000	-30.334	-0.000	-0.000	0.000
8165	8112	8111	8110	3	58.576	0.000	-58.576	-0.000	-0.000	0.000
8165	8112	8113	8114	3	58.576	0.000	-58.576	-0.000	-0.000	0.000
8167	8114	8113	8112	3	58.576	0.000	-58.576	-0.000	-0.000	0.000
8166	8113	8112	8111	3	58.576	0.000	-58.576	-0.000	-0.000	0.000
8163	8108	8109	8110	3	58.576	0.000	-58.576	-0.000	-0.000	0.000
8162	8107	8108	8109	3	58.576	0.000	-58.576	-0.000	-0.000	0.000
8163	8108	8107	8106	3	58.576	0.000	-58.576	-0.000	-0.000	0.000
8166	8113	8114	8115	3	58.576	0.000	-58.576	-0.000	-0.000	0.000
8165	8112	8111	8137	3	58.576	0.000	-58.576	-0.000	-0.000	0.000
8163	8108	8109	8141	3	58.576	0.000	-58.576	-0.000	-0.000	0.000
8163	8108	8107	8162	3	58.576	0.000	-58.576	-0.000	-0.000	0.000
8166	8113	8112	8165	3	58.576	0.000	-58.576	-0.000	-0.000	0.000
8167	8114	8113	8166	3	58.576	0.000	-58.576	-0.000	-0.000	0.000
8162	8107	8106	8142	3	-0.778	-2.335	0.000	3.113	-0.000	0.000
8162	8107	8106	8105	3	-0.778	-2.335	0.000	3.113	-0.000	0.000
8167	8114	8115	8116	3	58.576	0.000	-58.576	-0.000	-0.000	0.000
8167	8114	8115	8126	3	58.576	0.000	-58.576	-0.000	-0.000	0.000
8181	8141	8109	8108	3	-0.778	-2.335	0.000	3.113	-0.000	0.000
8181	8141	8109	8110	3	-0.778	-2.335	0.000	3.113	-0.000	0.000
8182	8141	8109	8108	3	-0.778	-2.335	0.000	3.113	-0.000	0.000
8174	8137	8111	8112	3	-0.778	-2.335	0.000	3.113	-0.000	0.000
8182	8141	8109	8110	3	-0.778	-2.335	0.000	3.113	-0.000	0.000
8173	8137	8111	8110	3	-0.778	-2.335	0.000	3.113	-0.000	0.000
8174	8137	8111	8110	3	-0.778	-2.335	0.000	3.113	-0.000	0.000
8173	8137	8111	8112	3	-0.778	-2.335	0.000	3.113	-0.000	0.000
8176	8139	8138	8141	3	0.628	1.883	0.000	-2.510	-0.000	0.000
8175	8139	8138	8140	3	0.628	1.883	0.000	-2.510	-0.000	0.000
8175	8139	8138	8137	3	0.628	1.883	0.000	-2.510	-0.000	0.000
8177	8139	8138	8140	3	0.628	1.883	0.000	-2.510	-0.000	0.000
8179	8140	8138	8137	3	0.628	1.883	0.000	-2.510	-0.000	0.000
8178	8140	8138	8137	3	0.628	1.883	0.000	-2.510	-0.000	0.000
8177	8139	8138	8137	3	0.628	1.883	0.000	-2.510	-0.000	0.000
8179	8140	8138	8139	3	0.628	1.883	0.000	-2.510	-0.000	0.000
8176	8139	8138	8137	3	0.628	1.883	0.000	-2.510	-0.000	0.000
8181	8141	8138	8137	3	0.628	1.883	0.000	-2.510	-0.000	0.000
8181	8141	8138	8139	3	0.628	1.883	0.000	-2.510	-0.000	0.000
8174	8137	8138	8139	3	0.628	1.883	0.000	-2.510	-0.000	0.000
8177	8139	8138	8141	3	0.628	1.883	0.000	-2.510	-0.000	0.000
8174	8137	8138	8140	3	0.628	1.883	0.000	-2.510	-0.000	0.000
8182	8141	8138	8139	3	0.628	1.883	0.000	-2.510	-0.000	0.000
8178	8140	8138	8141	3	0.628	1.883	0.000	-2.510	-0.000	0.000
8179	8140	8138	8141	3	0.628	1.883	0.000	-2.510	-0.000	0.000
8180	8140	8138	8137	3	0.628	1.883	0.000	-2.510	-0.000	0.000
8173	8137	8138	8140	3	0.628	1.883	0.000	-2.510	-0.000	0.000
8173	8137	8138	8139	3	0.628	1.883	0.000	-2.510	-0.000	0.000
8178	8140	8138	8139	3	0.628	1.883	0.000	-2.510	-0.000	0.000
8174	8137	8138	8141	3	0.628	1.883	0.000	-2.510	-0.000	0.000
8182	8141	8138	8140	3	0.628	1.883	0.000	-2.510	-0.000	0.000
8176	8139	8138	8140	3	0.628	1.883	0.000	-2.510	-0.000	0.000
8175	8139	8138	8141	3	0.628	1.883	0.000	-2.510	-0.000	0.000
8182	8141	8138	8137	3	0.628	1.883	0.000	-2.510	-0.000	0.000
8173	8137	8138	8141	3	0.628	1.883	0.000	-2.510	-0.000	0.000
8180	8140	8138	8139	3	0.628	1.883	0.000	-2.510	-0.000	0.000
8181	8141	8138	8140	3	0.628	1.883	0.000	-2.510	-0.000	0.000
8180	8140	8138	8141	3	0.628	1.883	0.000	-2.510	-0.000	0.000
8149	8088	8087	8148	3	0.628	1.883	0.000	-2.510	-0.000	0.000
8150	8088	8087	8147	3	0.628	1.883	0.000	-2.510	-0.000	0.000
8149	8088	8087	8147	3	0.628	1.883	0.000	-2.510	-0.000	0.000
8150	8088	8087	8148	3	0.628	1.883	0.000	-2.510	-0.000	0.000
8150	8088	8087	8086	3	-4.096	5.088	2.966	-3.958	-0.000	0.000
8149	8088	8087	8086	3	-4.096	5.088	2.966	-3.958	-0.000	0.000
8148	8087	8088	8089	3	0.979	2.937	0.000	-3.916	-0.000	0.000
8147	8087	8088	8089	3	0.979	2.937	0.000	-3.916	-0.000	0.000
8148	8087	8086	8103	3	1.172	3.515	0.000	-4.686	-0.000	0.000
8144	8085	8086	8103	3	1.172	3.515	0.000	-4.686	-0.000	0.000
8147	8087	8086	8103	3	1.172	3.515	0.000	-4.686	-0.000	0.000
8145	8085	8086	8103	3	1.172	3.515	0.000	-4.686	-0.000	0.000
8146	8085	8086	8103	3	1.172	3.515	0.000	-4.686	-0.000	0.000
8147	8087	8086	8085	3	1.172	3.515	0.000	-4.686	-0.000	0.000
8145	8085	8086	8087	3	1.172	3.515	0.000	-4.686	-0.000	0.000
8148	8087	8086	8085	3	1.172	3.515	0.000	-4.686	-0.000	0.000
8146	8085	8086	8087	3	1.172	3.515	0.000	-4.686	-0.000	0.000
8144	8085	8086	8087	3	1.172	3.515	0.000	-4.686	-0.000	0.000
8149	8088	8089	8090	3	1.590	4.770	0.000	-6.360	-0.000	0.000
8150	8088	8089	8090	3	1.590	4.770	0.000	-6.360	-0.000	0.000
8155	8098	8097	8099	3	0.0	0.0	0.0	-0.0	-0.0	0.0
8155	8098	8097	8096	3	0.0	0.0	0.0	-0.0	-0.0	0.0
8098	8097	8096	8095	3	0.0	0.0	0.0	-0.0	-0.0	0.0
8125	8126	8115	8114	3	2.874	0.582	2.092	-5.548	-0.000	0.000
8125	8126	8115	8116	3	1.046	-1.046	0.000	-0.000	-0.000	0.000
8089	8088	8087	8086	3	16.736	-16.736	0.000	-0.000	-0.000	0.000
8125	8119	8116	8115	3	1.046	-1.046	0.000	-0.000	-0.000	0.000
8125	8119	8116	8117	3	9.079	0.000	-9.079	-0.000	-0.000	0.000
8194	8193	8192	8191	3	30.334	0.000	-30.334	-0.000	-0.000	0.000
8193	8201	8202	8190	3	30.334	0.000	-30.334	-0.000	-0.000	0.000
8193	8192	8191	8190	3	30.334	0.000	-30.334	-0.000	-0.000	0.000
8214	8213	8212	8211	3	21.738	2.408	-16.966	-7.180	-0.000	0.000
8210	8209	8208	8207	3	21.738	2.408	-16.966	-7.180	-0.000	0.000
8211	8210	8209	8208	3	21.738	2.408	-16.966	-7.180	-0.000	0.000
8212	8211	8210	8209	3	21.738	2.408	-16.966	-7.180	-0.000	0.000
8213	8212	8211	8210	3	21.738	2.408	-16.966	-7.180	-0.000	0.000
8209	8208	8207	8206	3	58.576	0.000	-58.576	-0.000	-0.000	0.000
8208	8207	8206	8205	3	16.027	-4.391	-14.029	2.393	-0.000	0.000
8207	8206	8205	8204	3	30.334	0.000	-30.334	-0.000	-0.000	0.000
8216	8215	8214	8213	3	58.576	0.000	-58.576	-0.000	-0.000	0.000
8201	8193	8194	8200	3	9.079	0.000	-9.079	-0.000	-0.000	0.000
8200	8194	8193	8192	3	9.079	0.000	-9.079	-0.000	-0.000	0.000
8201	8193	8194	8195	3	9.079	0.000	-9.079	-0.000	-0.000	0.000
8195	8194	8193	8192	3	9.079	0.000	-9.079	-0.000	-0.000	0.000
8200	8194	8195	8196	3	30.334	0.000	-30.334	-0.000	-0.000	0.000
8201	8193	8192	8191	3	30.334	0.000	-30.334	-0.000	-0.000	0.000
8199	8200	8194	8193	3	30.334	0.000	-30.334	-0.000	-0.000	0.000
8202	8201	8193	8194	3	30.334	0.000	-30.334	-0.000	-0.000	0.000
8196	8195	8194	8193	3	30.334	0.000	-30.334	-0.000	-0.000	0.000
8199	8200	8194	8195	3	30.334	0.000	-30.334	-0.000	-0.000	0.000
8202	8201	8193	8192	3	30.334	0.000	-30.334	-0.000	-0.000	0.000
8242	8206	8207	8208	3	16.027	-4.391	-14.029	2.393	-0.000	0.000
8197	8199	8200	8194	3	30.334	0.000	-30.334	-0.000	-0.000	0.000
8197	8196	8195	8194	3	30.334	0.000	-30.334	-0.000	-0.000	0.000
8243	8242	8206	8207	3	30.334	0.000	-30.334	-0.000	-0.000	0.000
8232	8227	8228	8229	3	30.334	0.000	-30.334	-0.000	-0.000	0.000
8243	8242	8206	8205	3	30.334	0.000	-30.334	-0.000	-0.000	0.000
8202	8190	8191	8192	3	30.334	0.000	-30.334	-0.000	-0.000	0.000
8242	8243	8203	8204	3	30.334	0.000	-30.334	-0.000	-0.000	0.000
8232	8231	8230	8229	3	30.334	0.000	-30.334	-0.000	-0.000	0.000
8231	8230	8229	8228	3	30.334	0.000	-30.334	-0.000	-0.000	0.000
8230	8229	8228	8227	3	30.334	0.000	-30.334	-0.000	-0.000	0.000
8206	8205	8204	8203	3	30.334	0.000	-30.334	-0.000	-0.000	0.000
8206	8242	8243	8203	3	30.334	0.000	-30.334	-0.000	-0.000	0.000
8243	8203	8204	8205	3	30.334	0.000	-30.334	-0.000	-0.000	0.000
8242	8206	8205	8204	3	30.334	0.000	-30.334	-0.000	-0.000	0.000
8231	8232	8227	8228	3	30.334	0.000	-30.334	-0.000	-0.000	0.000
8200	8199	8197	8196	3	30.334	0.000	-30.334	-0.000	-0.000	0.000
8201	8202	8190	8191	3	30.334	0.000	-30.334	-0.000	-0.000	0.000
8230	8231	8232	8227	3	30.334	0.000	-30.334	-0.000	-0.000	0.000
8199	8197	8196	8195	3	30.334	0.000	-30.334	-0.000	-0.000	0.000
8231	8232	8227	8226	3	30.334	0.000	-30.334	-0.000	-0.000	0.000
8229	8228	8227	8226	3	30.334	0.000	-30.334	-0.000	-0.000	0.000
8242	8243	8203	8186	3	30.334	0.000	-30.334	-0.000	-0.000	0.000
8205	8204	8203	8186	3	30.334	0.000	-30.334	-0.000	-0.000	0.000
8200	8199	8197	8198	3	0.0	0.0	0.0	-0.0	-0.0	0.0
8192	8191	8190	8189	3	30.334	0.000	-30.334	-0.000	-0.000	0.000
8201	8202	8190	8189	3	30.334	0.000	-30.334	-0.000	-0.000	0.000
8232	8227	8226	8215	3	0.000	0.000	0.000	-0.000	-0.000	0.000
8228	8227	8226	8215	3	0.000	0.000	0.000	-0.000	-0.000	0.000
8232	8227	8226	8225	3	0.000	0.000	0.000	-0.000	-0.000	0.000
8228	8227	8226	8225	3	0.000	0.000	0.000	-0.000	-0.000	0.000
8243	8203	8186	8187	3	5.184	35.932	-14.355	-26.761	-0.000	0.000
8204	8203	8186	8187	3	5.184	35.932	-14.355	-26.761	-0.000	0.000
8204	8203	8186	8185	3	5.184	35.932	-14.355	-26.761	-0.000	0.000
8243	8203	8186	8185	3	5.184	35.932	-14.355	-26.761	-0.000	0.000
8191	8190	8189	8188	3	12.552	0.000	-12.552	-0.000	-0.000	0.000
8202	8190	8189	8188	3	12.552	0.000	-12.552	-0.000	-0.000	0.000
8227	8226	8215	8214	3	6.322	-2.485	0.707	-4.544	-0.000	0.000
8227	8226	8215	8216	3	0.527	-6.397	-1.695	7.565	-0.000	0.000
8227	8226	8225	8219	3	1.715	2.845	1.046	-5.607	-0.000	0.000
8203	8186	8187	8188	3	1.789	3.492	0.536	-5.816	-0.000	0.000
8190	8189	8188	8187	3	1.715	2.845	1.046	-5.607	-0.000	0.000
8233	8226	8227	8228	3	0.000	0.000	0.000	-0.000	-0.000	0.000
8233	8226	8227	8232	3	0.000	0.000	0.000	-0.000	-0.000	0.000
8233	8226	8215	8214	3	6.322	-2.485	0.707	-4.544	-0.000	0.000
8233	8226	8215	8216	3	0.527	-6.397	-1.695	7.565	-0.000	0.000
8233	8226	8225	8219	3	1.715	2.845	1.046	-5.607	-0.000	0.000
8215	8214	8213	8212	3	21.738	2.408	-16.966	-7.180	-0.000	0.000
8220	8219	8216	8215	3	21.738	2.408	-16.966	-7.180	-0.000	0.000
8220	8219	8216	8217	3	-0.778	-2.335	0.000	3.113	-0.000	0.000
8241	8209	8208	8207	3	58.576	0.000	-58.576	-0.000	-0.000	0.000
8237	8211	8210	8209	3	58.576	0.000	-58.576	-0.000	-0.000	0.000
8241	8209	8210	8211	3	58.576	0.000	-58.576	-0.000	-0.000	0.000
8237	8211	8212	8213	3	58.576	0.000	-58.576	-0.000	-0.000	0.000
8226	8215	8214	8213	3	-0.778	-2.335	0.000	3.113	-0.000	0.000
8226	8215	8216	8219	3	58.576	0.000	-58.576	-0.000	-0.000	0.000
8226	8215	8216	8217	3	58.576	0.000	-58.576	-0.000	-0.000	0.000
8238	8241	8209	8208	3	0.527	-6.397	-1.695	7.565	-0.000	0.000
8238	8237	8211	8212	3	0.527	-6.397	-1.695	7.565	-0.000	0.000
8238	8237	8211	8210	3	0.527	-6.397	-1.695	7.565	-0.000	0.000
8238	8241	8209	8210	3	0.527	-6.397	-1.695	7.565	-0.000	0.000
8241	8238	8237	8211	3	2.301	-1.464	0.837	-1.674	-0.000	0.000
8240	8238	8241	8209	3	2.301	-1.464	0.837	-1.674	-0.000	0.000
8237	8238	8241	8209	3	2.301	-1.464	0.837	-1.674	-0.000	0.000
8239	8238	8241	8209	3	2.301	-1.464	0.837	-1.674	-0.000	0.000
8240	8238	8237	8211	3	2.301	-1.464	0.837	-1.674	-0.000	0.000
8239	8238	8237	8211	3	2.301	-1.464	0.837	-1.674	-0.000	0.000
8188	8187	8186	8185	3	1.789	3.492	0.536	-5.816	-0.000	0.000
8226	8225	8219	8216	3	30.334	0.000	-30.334	-0.000	-0.000	0.000
8226	8225	8219	8220	3	30.334	0.000	-30.334	-0.000	-0.000	0.000
8219	8216	8215	8214	3	58.576	0.000	-58.576	-0.000	-0.000	0.000
8219	8225	8226	8215	3	1.715	2.845	1.046	-5.607	-0.000	0.000
8217	8216	8215	8214	3	58.576	0.000	-58.576	-0.000	-0.000	0.000
8221	8220	8219	8216	3	58.576	0.000	-58.576	-0.000	-0.000	0.000
8223	8220	8219	8216	3	58.576	0.000	-58.576	-0.000	-0.000	0.000
8234	8233	8226	8227	3	0.000	0.000	0.000	-0.000	-0.000	0.000
8235	8233	8226	8227	3	0.000	0.000	0.000	-0.000	-0.000	0.000
8236	8233	8226	8227	3	0.000	0.000	0.000	-0.000	-0.000	0.000
8235	8233	8226	8215	3	0.000	0.000	0.000	-0.000	-0.000	0.000
8234	8233	8226	8215	3	0.000	0.000	0.000	-0.000	-0.000	0.000
8236	8233	8226	8215	3	0.000	0.000	0.000	-0.000	-0.000	0.000
8235	8233	8226	8225	3	1.130	3.389	0.000	-4.519	-0.000	0.000
8236	8233	8226	8225	3	1.130	3.389	0.000	-4.519	-0.000	0.000
8234	8233	8226	8225	3	1.130	3.389	0.000	-4.519	-0.000	0.000
8264	8210	8209	8208	3	58.576	0.000	-58.576	-0.000	-0.000	0.000
8264	8210	8211	8212	3	58.576	0.000	-58.576	-0.000	-0.000	0.000
8264	8210	8211	8237	3	58.576	0.000	-58.576	-0.000	-0.000	0.000
8264	8210	8209	8241	3	58.576	0.000	-58.576	-0.000	-0.000	0.000
8253	8195	8194	8193	3	30.334	0.000	-30.334	-0.000	-0.000	0.000
8252	8192	8193	8194	3	30.334	0.000	-30.334	-0.000	-0.000	0.000
8258	8201	8193	8194	3	30.334	0.000	-30.334	-0.000	-0.000	0.000
8257	8200	8194	8193	3	30.334	0.000	-30.334	-0.000	-0.000	0.000
8257	8200	8194	8195	3	30.334	0.000	-30.334	-0.000	-0.000	0.000
8253	8195	8194	8200	3	30.334	0.000	-30.334	-0.000	-0.000	0.000
8252	8192	8193	8201	3	30.334	0.000	-30.334	-0.000	-0.000	0.000
8258	8201	8193	8192	3	30.334	0.000	-30.334	-0.000	-0.000	0.000
8251	8191	8192	8193	3	30.334	0.000	-30.334	-0.000	-0.000	0.000
8259	8202	8201	8193	3	30.334	0.000	-30.334	-0.000	-0.000	0.000
8254	8196	8195	8194	3	30.334	0.000	-30.334	-0.000	-0.000	0.000
8256	8199	8200	8194	3	30.334	0.000	-30.334	-0.000	-0.000	0.000
8261	8205	8206	8207	3	30.334	0.000	-30.334	-0.000	-0.000	0.000
8283	8242	8206	8207	3	30.334	0.000	-30.334	-0.000	-0.000	0.000
8268	8228	8229	8230	3	30.334	0.000	-30.334	-0.000	-0.000	0.000
8256	8199	8197	8196	3	30.334	0.000	-30.334	-0.000	-0.000	0.000
8271	8231	8230	8229	3	30.334	0.000	-30.334	-0.000	-0.000	0.000
8283	8242	8243	8203	3	30.334	0.000	-30.334	-0.000	-0.000	0.000
8269	8229	8228	8227	3	30.334	0.000	-30.334	-0.000	-0.000	0.000
8284	8243	8242	8206	3	30.334	0.000	-30.334	-0.000	-0.000	0.000
8270	8230	8229	8228	3	30.334	0.000	-30.334	-0.000	-0.000	0.000
8259	8202	8190	8191	3	30.334	0.000	-30.334	-0.000	-0.000	0.000
8258	8201	8202	8190	3	30.334	0.000	-30.334	-0.000	-0.000	0.000
8283	8242	8206	8205	3	30.334	0.000	-30.334	-0.000	-0.000	0.000
8284	8243	8203	8204	3	30.334	0.000	-30.334	-0.000	-0.000	0.000
8271	8231	8232	8227	3	30.334	0.000	-30.334	-0.000	-0.000	0.000
8268	8228	8227	8232	3	30.334	0.000	-30.334	-0.000	-0.000	0.000
8253	8195	8196	8197	3	30.334	0.000	-30.334	-0.000	-0.000	0.000
8254	8196	8197	8199	3	30.334	0.000	-30.334	-0.000	-0.000	0.000
8251	8191	8190	8202	3	30.334	0.000	-30.334	-0.000	-0.000	0.000
8260	8204	8203	8243	3	30.334	0.000	-30.334	-0.000	-0.000	0.000
8260	8204	8205	8206	3	30.334	0.000	-30.334	-0.000	-0.000	0.000
8257	8200	8199	8197	3	30.334	0.000	-30.334	-0.000	-0.000	0.000
8261	8205	8206	8242	3	30.334	0.000	-30.334	-0.000	-0.000	0.000
8270	8230	8231	8232	3	30.334	0.000	-30.334	-0.000	-0.000	0.000
8272	8232	8231	8230	3	30.334	0.000	-30.334	-0.000	-0.000	0.000
8269	8229	8230	8231	3	30.334	0.000	-30.334	-0.000	-0.000	0.000
8272	8232	8227	8228	3	30.334	0.000	-30.334	-0.000	-0.000	0.000
8252	8192	8191	8190	3	30.334	0.000	-30.334	-0.000	-0.000	0.000
8261	8205	8204	8203	3	30.334	0.000	-30.334	-0.000	-0.000	0.000
8272	8232	8227	8226	3	30.334	0.000	-30.334	-0.000	-0.000	0.000
8268	8228	8227	8226	3	30.334	0.000	-30.334	-0.000	-0.000	0.000
8261	8205	8204	8260	3	30.334	0.000	-30.334	-0.000	-0.000	0.000
8284	8243	8242	8283	3	30.334	0.000	-30.334	-0.000	-0.000	0.000
8270	8230	8229	8269	3	30.334	0.000	-30.334	-0.000	-0.000	0.000
8254	8196	8195	8253	3	30.334	0.000	-30.334	-0.000	-0.000	0.000
8259	8202	8201	8258	3	30.334	0.000	-30.334	-0.000	-0.000	0.000
8257	8200	8199	8256	3	30.334	0.000	-30.334	-0.000	-0.000	0.000
8269	8229	8228	8268	3	30.334	0.000	-30.334	-0.000	-0.000	0.000
8252	8192	8191	8251	3	30.334	0.000	-30.334	-0.000	-0.000	0.000
8271	8231	8230	8270	3	30.334	0.000	-30.334	-0.000	-0.000	0.000
8272	8232	8231	8271	3	30.334	0.000	-30.334	-0.000	-0.000	0.000
8284	8243	8203	8186	3	30.334	0.000	-30.334	-0.000	-0.000	0.000
8260	8204	8203	8186	3	30.334	0.000	-30.334	-0.000	-0.000	0.000
8254	8196	8197	8198	3	0.0	0.0	0.0	-0.0	-0.0	0.0
8256	8199	8197	8198	3	0.0	0.0	0.0	-0.0	-0.0	0.0
8251	8191	8190	8189	3	30.334	0.000	-30.334	-0.000	-0.000	0.000
8259	8202	8190	8189	3	30.334	0.000	-30.334	-0.000	-0.000	0.000
8265	8212	8211	8210	3	58.576	0.000	-58.576	-0.000	-0.000	0.000
8265	8212	8213	8214	3	58.576	0.000	-58.576	-0.000	-0.000	0.000
8267	8214	8213	8212	3	58.576	0.000	-58.576	-0.000	-0.000	0.000
8266	8213	8212	8211	3	58.576	0.000	-58.576	-0.000	-0.000	0.000
8263	8208	8209	8210	3	58.576	0.000	-58.576	-0.000	-0.000	0.000
8262	8207	8208	8209	3	58.576	0.000	-58.576	-0.000	-0.000	0.000
8263	8208	8207	8206	3	58.576	0.000	-58.576	-0.000	-0.000	0.000
8266	8213	8214	8215	3	58.576	0.000	-58.576	-0.000	-0.000	0.000
8265	8212	8211	8237	3	58.576	0.000	-58.576	-0.000	-0.000	0.000
8263	8208	8209	8241	3	58.576	0.000	-58.576	-0.000	-0.000	0.000
8263	8208	8207	8262	3	58.576	0.000	-58.576	-0.000	-0.000	0.000
8266	8213	8212	8265	3	58.576	0.000	-58.576	-0.000	-0.000	0.000
8267	8214	8213	8266	3	58.576	0.000	-58.576	-0.000	-0.000	0.000
8262	8207	8206	8242	3	-0.778	-2.335	0.000	3.113	-0.000	0.000
8262	8207	8206	8205	3	-0.778	-2.335	0.000	3.113	-0.000	0.000
8267	8214	8215	8216	3	58.576	0.000	-58.576	-0.000	-0.000	0.000
8267	8214	8215	8226	3	58.576	0.000	-58.576	-0.000	-0.000	0.000
8281	8241	8209	8208	3	-0.778	-2.335	0.000	3.113	-0.000	0.000
8281	8241	8209	8210	3	-0.778	-2.335	0.000	3.113	-0.000	0.000
8282	8241	8209	8208	3	-0.778	-2.335	0.000	3.113	-0.000	0.000
8274	8237	8211	8212	3	-0.778	-2.335	0.000	3.113	-0.000	0.000
8282	8241	8209	8210	3	-0.778	-2.335	0.000	3.113	-0.000	0.000
8273	8237	8211	8210	3	-0.778	-2.335	0.000	3.113	-0.000	0.000
8274	8237	8211	8210	3	-0.778	-2.335	0.000	3.113	-0.000	0.000
8273	8237	8211	8212	3	-0.778	-2.335	0.000	3.113	-0.000	0.000
8276	8239	8238	8241	3	0.628	1.883	0.000	-2.510	-0.000	0.000
8275	8239	8238	8240	3	0.628	1.883	0.000	-2.510	-0.000	0.000
8275	8239	8238	8237	3	0.628	1.883	0.000	-2.510	-0.000	0.000
8277	8239	8238	8240	3	0.628	1.883	0.000	-2.510	-0.000	0.000
8279	8240	8238	8237	3	0.628	1.883	0.000	-2.510	-0.000	0.000
8278	8240	8238	8237	3	0.628	1.883	0.000	-2.510	-0.000	0.000
8277	8239	8238	8237	3	0.628	1.883	0.000	-2.510	-0.000	0.000
8279	8240	8238	8239	3	0.628	1.883	0.000	-2.510	-0.000	0.000
8276	8239	8238	8237	3	0.628	1.883	0.000	-2.510	-0.000	0.000
8281	8241	8238	8237	3	0.628	1.883	0.000	-2.510	-0.000	0.000
8281	8241	8238	8239	3	0.628	1.883	0.000	-2.510	-0.000	0.000
8274	8237	8238	8239	3	0.628	1.883	0.000	-2.510	-0.000	0.000
8277	8239	8238	8241	3	0.628	1.883	0.000	-2.510	-0.000	0.000
8274	8237	8238	8240	3	0.628	1.883	0.000	-2.510	-0.000	0.000
8282	8241	8238	8239	3	0.628	1.883	0.000	-2.510	-0.000	0.000
8278	8240	8238	8241	3	0.628	1.883	0.000	-2.510	-0.000	0.000
8279	8240	8238	8241	3	0.628	1.883	0.000	-2.510	-0.000	0.000
8280	8240	8238	8237	3	0.628	1.883	0.000	-2.510	-0.000	0.000
8273	8237	8238	8240	3	0.628	1.883	0.000	-2.510	-0.000	0.000
8273	8237	8238	8239	3	0.628	1.883	0.000	-2.510	-0.000	0.000
8278	8240	8238	8239	3	0.628	1.883	0.000	-2.510	-0.000	0.000
8274	8237	8238	8241	3	0.628	1.883	0.000	-2.510	-0.000	0.000
8282	8241	8238	8240	3	0.628	1.883	0.000	-2.510	-0.000	0.000
8276	8239	8238	8240	3	0.628	1.883	0.000	-2.510	-0.000	0.000
8275	8239	8238	8241	3	0.628	1.883	0.000	-2.510	-0.000	0.000
8282	8241	8238	8237	3	0.628	1.883	0.000	-2.510	-0.000	0.000
8273	8237	8238	8241	3	0.628	1.883	0.000	-2.510	-0.000	0.000
8280	8240	8238	8239	3	0.628	1.883	0.000	-2.510	-0.000	0.000
8281	8241	8238	8240	3	0.628	1.883	0.000	-2.510	-0.000	0.000
8280	8240	8238	8241	3	0.628	1.883	0.000	-2.510	-0.000	0.000
8249	8188	8187	8248	3	0.628	1.883	0.000	-2.510	-0.000	0.000
8250	8188	8187	8247	3	0.628	1.883	0.000	-2.510	-0.000	0.000
8249	8188	8187	8247	3	0.628	1.883	0.000	-2.510	-0.000	0.000
8250	8188	8187	8248	3	0.628	1.883	0.000	-2.510	-0.000	0.000
8250	8188	8187	8186	3	-4.096	5.088	2.966	-3.958	-0.000	0.000
8249	8188	8187	8186	3	-4.096	5.088	2.966	-3.958	-0.000	0.000
8248	8187	8188	8189	3	0.979	2.937	0.000	-3.916	-0.000	0.000
8247	8187	8188	8189	3	0.979	2.937	0.000	-3.916	-0.000	0.000
8248	8187	8186	8203	3	1.172	3.515	0.000	-4.686	-0.000	0.000
8244	8185	8186	8203	3	1.172	3.515	0.000	-4.686	-0.000	0.000
8247	8187	8186	8203	3	1.172	3.515	0.000	-4.686	-0.000	0.000
8245	8185	8186	8203	3	1.172	3.515	0.000	-4.686	-0.000	0.000
8246	8185	8186	8203	3	1.172	3.515	0.000	-4.686	-0.000	0.000
8247	8187	8186	8185	3	1.172	3.515	0.000	-4.686	-0.000	0.000
8245	8185	8186	8187	3	1.172	3.515	0.000	-4.686	-0.000	0.000
8248	8187	8186	8185	3	1.172	3.515	0.000	-4.686	-0.000	0.000
8246	8185	8186	8187	3	1.172	3.515	0.000	-4.686	-0.000	0.000
8244	8185	8186	8187	3	1.172	3.515	0.000	-4.686	-0.000	0.000
8249	8188	8189	8190	3	1.590	4.770	0.000	-6.360	-0.000	0.000
8250	8188	8189	8190	3	1.590	4.770	0.000	-6.360	-0.000	0.000
8255	8198	8197	8199	3	0.0	0.0	0.0	-0.0	-0.0	0.0
8255	8198	8197	8196	3	0.0	0.0	0.0	-0.0	-0.0	0.0
8198	8197	8196	8195	3	0.0	0.0	0.0	-0.0	-0.0	0.0
8225	8226	8215	8214	3	2.874	0.582	2.092	-5.548	-0.000	0.000
8225	8226	8215	8216	3	1.046	-1.046	0.000	-0.000	-0.000	0.000
8189	8188	8187	8186	3	16.736	-16.736	0.000	-0.000	-0.000	0.000
8225	8219	8216	8215	3	1.046	-1.046	0.000	-0.000	-0.000	0.000
8225	8219	8216	8217	3	9.079	0.000	-9.079	-0.000	-0.000	0.000
8294	8293	8292	8291	3	30.334	0.000	-30.334	-0.000	-0.000	0.000
8293	8301	8302	8290	3	30.334	0.000	-30.334	-0.000	-0.000	0.000
8293	8292	8291	8290	3	30.334	0.000	-30.334	-0.000	-0.000	0.000
8314	8313	8312	8311	3	21.738	2.408	-16.966	-7.180	-0.000	0.000
8310	8309	8308	8307	3	21.738	2.408	-16.966	-7.180	-0.000	0.000
8311	8310	8309	8308	3	21.738	2.408	-16.966	-7.180	-0.000	0.000
8312	8311	8310	8309	3	21.738	2.408	-16.966	-7.180	-0.000	0.000
8313	8312	8311	8310	3	21.738	2.408	-16.966	-7.180	-0.000	0.000
8309	8308	8307	8306	3	58.576	0.000	-58.576	-0.000	-0.000	0.000
8308	8307	8306	8305	3	16.027	-4.391	-14.029	2.393	-0.000	0.000
8307	8306	8305	8304	3	30.334	0.000	-30.334	-0.000	-0.000	0.000
8316	8315	8314	8313	3	58.576	0.000	-58.576	-0.000	-0.000	0.000
8301	8293	8294	8300	3	9.079	0.000	-9.079	-0.000	-0.000	0.000
8300	8294	8293	8292	3	9.079	0.000	-9.079	-0.000	-0.000	0.000
8301	8293	8294	8295	3	9.079	0.000	-9.079	-0.000	-0.000	0.000
8295	8294	8293	8292	3	9.079	0.000	-9.079	-0.000	-0.000	0.000
8300	8294	8295	8296	3	30.334	0.000	-30.334	-0.000	-0.000	0.000
8301	8293	8292	8291	3	30.334	0.000	-30.334	-0.000	-0.000	0.000
8299	8300	8294	8293	3	30.334	0.000	-30.334	-0.000	-0.000	0.000
8302	8301	8293	8294	3	30.334	0.000	-30.334	-0.000	-0.000	0.000
8296	8295	8294	8293	3	30.334	0.000	-30.334	-0.000	-0.000	0.000
8299	8300	8294	8295	3	30.334	0.000	-30.334	-0.000	-0.000	0.000
8302	8301	8293	8292	3	30.334	0.000	-30.334	-0.000	-0.000	0.000
8342	8306	8307	8308	3	16.027	-4.391	-14.029	2.393	-0.000	0.000
8297	8299	8300	8294	3	30.334	0.000	-30.334	-0.000	-0.000	0.000
8297	8296	8295	8294	3	30.334	0.000	-30.334	-0.000	-0.000	0.000
8343	8342	8306	8307	3	30.334	0.000	-30.334	-0.000	-0.000	0.000
8332	8327	8328	8329	3	30.334	0.000	-30.334	-0.000	-0.000	0.000
8343	8342	8306	8305	3	30.334	0.000	-30.334	-0.000	-0.000	0.000
8302	8290	8291	8292	3	30.334	0.000	-30.334	-0.000	-0.000	0.000
8342	8343	8303	8304	3	30.334	0.000	-30.334	-0.000	-0.000	0.000
8332	8331	8330	8329	3	30.334	0.000	-30.334	-0.000	-0.000	0.000
8331	8330	8329	8328	3	30.334	0.000	-30.334	-0.000	-0.000	0.000
8330	8329	8328	8327	3	30.334	0.000	-30.334	-0.000	-0.000	0.000
8306	8305	8304	8303	3	30.334	0.000	-30.334	-0.000	-0.000	0.000
8306	8342	8343	8303	3	30.334	0.000	-30.334	-0.000	-0.000	0.000
8343	8303	8304	8305	3	30.334	0.000	-30.334	-0.000	-0.000	0.000
8342	8306	8305	8304	3	30.334	0.000	-30.334	-0.000	-0.000	0.000
8331	8332	8327	8328	3	30.334	0.000	-30.334	-0.000	-0.000	0.000
8300	8299	8297	8296	3	30.334	0.000	-30.334	-0.000	-0.000	0.000
8301	8302	8290	8291	3	30.334	0.000	-30.334	-0.000	-0.000	0.000
8330	8331	8332	8327	3	30.334	0.000	-30.334	-0.000	-0.000	0.000
8299	8297	8296	8295	3	30.334	0.000	-30.334	-0.000	-0.000	0.000
8331	8332	8327	8326	3	30.334	0.000	-30.334	-0.000	-0.000	0.000
8329	8328	8327	8326	3	30.334	0.000	-30.334	-0.000	-0.000	0.000
8342	8343	8303	8286	3	30.334	0.000	-30.334	-0.000	-0.000	0.000
8305	8304	8303	8286	3	30.334	0.000	-30.334	-0.000	-0.000	0.000
8300	8299	8297	8298	3	0.0	0.0	0.0	-0.0	-0.0	0.0
8292	8291	8290	8289	3	30.334	0.000	-30.334	-0.000	-0.000	0.000
8301	8302	8290	8289	3	30.334	0.000	-30.334	-0.000	-0.000	0.000
8332	8327	8326	8315	3	0.000	0.000	0.000	-0.000	-0.000	0.000
8328	8327	8326	8315	3	0.000	0.000	0.000	-0.000	-0.000	0.000
8332	8327	8326	8325	3	0.000	0.000	0.000	-0.000	-0.000	0.000
8328	8327	8326	8325	3	0.000	0.000	0.000	-0.000	-0.000	0.000
8343	8303	8286	8287	3	5.184	35.932	-14.355	-26.761	-0.000	0.000
8304	8303	8286	8287	3	5.184	35.932	-14.355	-26.761	-0.000	0.000
8304	8303	8286	8285	3	5.184	35.932	-14.355	-26.761	-0.000	0.000
8343	8303	8286	8285	3	5.184	35.932	-14.355	-26.761	-0.000	0.000
8291	8290	8289	8288	3	12.552	0.000	-12.552	-0.000	-0.000	0.000
8302	8290	8289	8288	3	12.552	0.000	-12.552	-0.000	-0.000	0.000
8327	8326	8315	8314	3	6.322	-2.485	0.707	-4.544	-0.000	0.000
8327	8326	8315	8316	3	0.527	-6.397	-1.695	7.565	-0.000	0.000
8327	8326	8325	8319	3	1.715	2.845	1.046	-5.607	-0.000	0.000
8303	8286	8287	8288	3	1.789	3.492	0.536	-5.816	-0.000	0.000
8290	8289	8288	8287	3	1.715	2.845	1.046	-5.607	-0.000	0.000
8333	8326	8327	8328	3	0.000	0.000	0.000	-0.000	-0.000	0.000
8333	8326	8327	8332	3	0.000	0.000	0.000	-0.000	-0.000	0.000
8333	8326	8315	8314	3	6.322	-2.485	0.707	-4.544	-0.000	0.000
8333	8326	8315	8316	3	0.527	-6.397	-1.695	7.565	-0.000	0.000
8333	8326	8325	8319	3	1.715	2.845	1.046	-5.607	-0.000	0.000
8315	8314	8313	8312	3	21.738	2.408	-16.966	-7.180	-0.000	0.000
8320	8319	8316	8315	3	21.738	2.408	-16.966	-7.180	-0.000	0.000
8320	8319	8316	8317	3	-0.778	-2.335	0.000	3.113	-0.000	0.000
8341	8309	8308	8307	3	58.576	0.000	-58.576	-0.000	-0.000	0.000
8337	8311	8310	8309	3	58.576	0.000	-58.576	-0.000	-0.000	0.000
8341	8309	8310	8311	3	58.576	0.000	-58.576	-0.000	-0.000	0.000
8337	8311	8312	8313	3	58.576	0.000	-58.576	-0.000	-0.000	0.000
8326	8315	8314	8313	3	-0.778	-2.335	0.000	3.113	-0.000	0.000
8326	8315	8316	8319	3	58.576	0.000	-58.576	-0.000	-0.000	0.000
8326	8315	8316	8317	3	58.576	0.000	-58.576	-0.000	-0.000	0.000
8338	8341	8309	8308	3	0.527	-6.397	-1.695	7.565	-0.000	0.000
8338	8337	8311	8312	3	0.527	-6.397	-1.695	7.565	-0.000	0.000
8338	8337	8311	8310	3	0.527	-6.397	-1.695	7.565	-0.000	0.000
8338	8341	8309	8310	3	0.527	-6.397	-1.695	7.565	-0.000	0.000
8341	8338	8337	8311	3	2.301	-1.464	0.837	-1.674	-0.000	0.000
8340	8338	8341	8309	3	2.301	-1.464	0.837	-1.674	-0.000	0.000
8337	8338	8341	8309	3	2.301	-1.464	0.837	-1.674	-0.000	0.000
8339	8338	8341	8309	3	2.301	-1.464	0.837	-1.674	-0.000	0.000
8340	8338	8337	8311	3	2.301	-1.464	0.837	-1.674	-0.000	0.000
8339	8338	8337	8311	3	2.301	-1.464	0.837	-1.674	-0.000	0.000
8288	8287	8286	8285	3	1.789	3.492	0.536	-5.816	-0.000	0.000
8326	8325	8319	8316	3	30.334	0.000	-30.334	-0.000	-0.000	0.000
8326	8325	8319	8320	3	30.334	0.000	-30.334	-0.000	-0.000	0.000
8319	8316	8315	8314	3	58.576	0.000	-58.576	-0.000	-0.000	0.000
8319	8325	8326	8315	3	1.715	2.845	1.046	-5.607	-0.000	0.000
8317	8316	8315	8314	3	58.576	0.000	-58.576	-0.000	-0.000	0.000
8321	8320	8319	8316	3	58.576	0.000	-58.576	-0.000	-0.000	0.000
8323	8320	8319	8316	3	58.576	0.000	-58.576	-0.000	-0.000	0.000
8334	8333	8326	8327	3	0.000	0.000	0.000	-0.000	-0.000	0.000
8335	8333	8326	8327	3	0.000	0.000	0.000	-0.000	-0.000	0.000
8336	8333	8326	8327	3	0.000	0.000	0.000	-0.000	-0.000	0.000
8335	8333	8326	8315	3	0.000	0.000	0.000	-0.000	-0.000	0.000
8334	8333	8326	8315	3	0.000	0.000	0.000	-0.000	-0.000	0.000
8336	8333	8326	8315	3	0.000	0.000	0.000	-0.000	-0.000	0.000
8335	8333	8326	8325	3	1.130	3.389	0.000	-4.519	-0.000	0.000
8336	8333	8326	8325	3	1.130	3.389	0.000	-4.519	-0.000	0.000
8334	8333	8326	8325	3	1.130	3.389	0.000	-4.519	-0.000	0.000
8364	8310	8309	8308	3	58.576	0.000	-58.576	-0.000	-0.000	0.000
8364	8310	8311	8312	3	58.576	0.000	-58.576	-0.000	-0.000	0.000
8364	8310	8311	8337	3	58.576	0.000	-58.576	-0.000	-0.000	0.000
8364	8310	8309	8341	3	58.576	0.000	-58.576	-0.000	-0.000	0.000
8353	8295	8294	8293	3	30.334	0.000	-30.334	-0.000	-0.000	0.000
8352	8292	8293	8294	3	30.334	0.000	-30.334	-0.000	-0.000	0.000
8358	8301	8293	8294	3	30.334	0.000	-30.334	-0.000	-0.000	0.000
8357	8300	8294	8293	3	30.334	0.000	-30.334	-0.000	-0.000	0.000
8357	8300	8294	8295	3	30.334	0.000	-30.334	-0.000	-0.000	0.000
8353	8295	8294	8300	3	30.334	0.000	-30.334	-0.000	-0.000	0.000
8352	8292	8293	8301	3	30.334	0.000	-30.334	-0.000	-0.000	0.000
8358	8301	8293	8292	3	30.334	0.000	-30.334	-0.000	-0.000	0.000
8351	8291	8292	8293	3	30.334	0.000	-30.334	-0.000	-0.000	0.000
8359	8302	8301	8293	3	30.334	0.000	-30.334	-0.000	-0.000	0.000
8354	8296	8295	8294	3	30.334	0.000	-30.334	-0.000	-0.000	0.000
8356	8299	8300	8294	3	30.334	0.000	-30.334	-0.000	-0.000	0.000
8361	8305	8306	8307	3	30.334	0.000	-30.334	-0.000	-0.000	0.000
8383	8342	8306	8307	3	30.334	0.000	-30.334	-0.000	-0.000	0.000
8368	8328	8329	8330	3	30.334	0.000	-30.334	-0.000	-0.000	0.000
8356	8299	8297	8296	3	30.334	0.000	-30.334	-0.000	-0.000	0.000
8371	8331	8330	8329	3	30.334	0.000	-30.334	-0.000	-0.000	0.000
8383	8342	8343	8303	3	30.334	0.000	-30.334	-0.000	-0.000	0.000
8369	8329	8328	8327	3	30.334	0.000	-30.334	-0.000	-0.000	0.000
8384	8343	8342	8306	3	30.334	0.000	-30.334	-0.000	-0.000	0.000
8370	8330	8329	8328	3	30.334	0.000	-30.334	-0.000	-0.000	0.000
8359	8302	8290	8291	3	30.334	0.000	-30.334	-0.000	-0.000	0.000
8358	8301	8302	8290	3	30.334	0.000	-30.334	-0.000	-0.000	0.000
8383	8342	8306	8305	3	30.334	0.000	-30.334	-0.000	-0.000	0.000
8384	8343	8303	8304	3	30.334	0.000	-30.334	-0.000	-0.000	0.000
8371	8331	8332	8327	3	30.334	0.000	-30.334	-0.000	-0.000	0.000
8368	8328	8327	8332	3	30.334	0.000	-30.334	-0.000	-0.000	0.000
8353	8295	8296	8297	3	30.334	0.000	-30.334	-0.000	-0.000	0.000
8354	8296	8297	8299	3	30.334	0.000	-30.334	-0.000	-0.000	0.000
8351	8291	8290	8302	3	30.334	0.000	-30.334	-0.000	-0.000	0.000
8360	8304	8303	8343	3	30.334	0.000	-30.334	-0.000	-0.000	0.000
8360	8304	8305	8306	3	30.334	0.000	-30.334	-0.000	-0.000	0.000
8357	8300	8299	8297	3	30.334	0.000	-30.334	-0.000	-0.000	0.000
8361	8305	8306	8342	3	30.334	0.000	-30.334	-0.000	-0.000	0.000
8370	8330	8331	8332	3	30.334	0.000	-30.334	-0.000	-0.000	0.000
8372	8332	8331	8330	3	30.334	0.000	-30.334	-0.000	-0.000	0.000
8369	8329	8330	8331	3	30.334	0.000	-30.334	-0.000	-0.000	0.000
8372	8332	8327	8328	3	30.334	0.000	-30.334	-0.000	-0.000	0.000
8352	8292	8291	8290	3	30.334	0.000	-30.334	-0.000	-0.000	0.000
8361	8305	8304	8303	3	30.334	0.000	-30.334	-0.000	-0.000	0.000
8372	8332	8327	8326	3	30.334	0.000	-30.334	-0.000	-0.000	0.000
8368	8328	8327	8326	3	30.334	0.000	-30.334	-0.000	-0.000	0.000
8361	8305	8304	8360	3	30.334	0.000	-30.334	-0.000	-0.000	0.000
8384	8343	8342	8383	3	30.334	0.000	-30.334	-0.000	-0.000	0.000
8370	8330	8329	8369	3	30.334	0.000	-30.334	-0.000	-0.000	0.000
8354	8296	8295	8353	3	30.334	0.000	-30.334	-0.000	-0.000	0.000
8359	8302	8301	8358	3	30.334	0.000	-30.334	-0.000	-0.000	0.000
8357	8300	8299	8356	3	30.334	0.000	-30.334	-0.000	-0.000	0.000
8369	8329	8328	8368	3	30.334	0.000	-30.334	-0.000	-0.000	0.000
8352	8292	8291	8351	3	30.334	0.000	-30.334	-0.000	-0.000	0.000
8371	8331	8330	8370	3	30.334	0.000	-30.334	-0.000	-0.000	0.000
8372	8332	8331	8371	3	30.334	0.000	-30.334	-0.000	-0.000	0.000
8384	8343	8303	8286	3	30.334	0.000	-30.334	-0.000	-0.000	0.000
8360	8304	8303	8286	3	30.334	0.000	-30.334	-0.000	-0.000	0.000
8354	8296	8297	8298	3	0.0	0.0	0.0	-0.0	-0.0	0.0
8356	8299	8297	8298	3	0.0	0.0	0.0	-0.0	-0.0	0.0
8351	8291	8290	8289	3	30.334	0.000	-30.334	-0.000	-0.000	0.000
8359	8302	8290	8289	3	30.334	0.000	-30.334	-0.000	-0.000	0.000
8365	8312	8311	8310	3	58.576	0.000	-58.576	-0.000	-0.000	0.000
8365	8312	8313	8314	3	58.576	0.000	-58.576	-0.000	-0.000	0.000
8367	8314	8313	8312	3	58.576	0.000	-58.576	-0.000	-0.000	0.000
8366	8313	8312	8311	3	58.576	0.000	-58.576	-0.000	-0.000	0.000
8363	8308	8309	8310	3	58.576	0.000	-58.576	-0.000	-0.000	0.000
8362	8307	8308	8309	3	58.576	0.000	-58.576	-0.000	-0.000	0.000
8363	8308	8307	8306	3	58.576	0.000	-58.576	-0.000	-0.000	0.000
8366	8313	8314	8315	3	58.576	0.000	-58.576	-0.000	-0.000	0.000
8365	8312	8311	8337	3	58.576	0.000	-58.576	-0.000	-0.000	0.000
8363	8308	8309	8341	3	58.576	0.000	-58.576	-0.000	-0.000	0.000
8363	8308	8307	8362	3	58.576	0.000	-58.576	-0.000	-0.000	0.000
8366	8313	8312	8365	3	58.576	0.000	-58.576	-0.000	-0.000	0.000
8367	8314	8313	8366	3	58.576	0.000	-58.576	-0.000	-0.000	0.000
8362	8307	8306	8342	3	-0.778	-2.335	0.000	3.113	-0.000	0.000
8362	8307	8306	8305	3	-0.778	-2.335	0.000	3.113	-0.000	0.000
8367	8314	8315	8316	3	58.576	0.000	-58.576	-0.000	-0.000	0.000
8367	8314	8315	8326	3	58.576	0.000	-58.576	-0.000	-0.000	0.000
8381	8341	8309	8308	3	-0.778	-2.335	0.000	3.113	-0.000	0.000
8381	8341	8309	8310	3	-0.778	-2.335	0.000	3.113	-0.000	0.000
8382	8341	8309	8308	3	-0.778	-2.335	0.000	3.113	-0.000	0.000
8374	8337	8311	8312	3	-0.778	-2.335	0.000	3.113	-0.000	0.000
8382	8341	8309	8310	3	-0.778	-2.335	0.000	3.113	-0.000	0.000
8373	8337	8311	8310	3	-0.778	-2.335	0.000	3.113	-0.000	0.000
8374	8337	8311	8310	3	-0.778	-2.335	0.000	3.113	-0.000	0.000
8373	8337	8311	8312	3	-0.778	-2.335	0.000	3.113	-0.000	0.000
8376	8339	8338	8341	3	0.628	1.883	0.000	-2.510	-0.000	0.000
8375	8339	8338	8340	3	0.628	1.883	0.000	-2.510	-0.000	0.000
8375	8339	8338	8337	3	0.628	1.883	0.000	-2.510	-0.000	0.000
8377	8339	8338	8340	3	0.628	1.883	0.000	-2.510	-0.000	0.000
8379	8340	8338	8337	3	0.628	1.883	0.000	-2.510	-0.000	0.000
8378	8340	8338	8337	3	0.628	1.883	0.000	-2.510	-0.000	0.000
8377	8339	8338	8337	3	0.628	1.883	0.000	-2.510	-0.000	0.000
8379	8340	8338	8339	3	0.628	1.883	0.000	-2.510	-0.000	0.000
8376	8339	8338	8337	3	0.628	1.883	0.000	-2.510	-0.000	0.000
8381	8341	8338	8337	3	0.628	1.883	0.000	-2.510	-0.000	0.000
8381	8341	8338	8339	3	0.628	1.883	0.000	-2.510	-0.000	0.000
8374	8337	8338	8339	3	0.628	1.883	0.000	-2.510	-0.000	0.000
8377	8339	8338	8341	3	0.628	1.883	0.000	-2.510	-0.000	0.000
8374	8337	8338	8340	3	0.628	1.883	0.000	-2.510	-0.000	0.000
8382	8341	8338	8339	3	0.628	1.883	0.000	-2.510	-0.000	0.000
8378	8340	8338	8341	3	0.628	1.883	0.000	-2.510	-0.000	0.000
8379	8340	8338	8341	3	0.628	1.883	0.000	-2.510	-0.000	0.000
8380	8340	8338	8337	3	0.628	1.883	0.000	-2.510	-0.000	0.000
8373	8337	8338	8340	3	0.628	1.883	0.000	-2.510	-0.000	0.000
8373	8337	8338	8339	3	0.628	1.883	0.000	-2.510	-0.000	0.000
8378	8340	8338	8339	3	0.628	1.883	0.000	-2.510	-0.000	0.000
8374	8337	8338	8341	3	0.628	1.883	0.000	-2.510	-0.000	0.000
8382	8341	8338	8340	3	0.628	1.883	0.000	-2.510	-0.000	0.000
8376	8339	8338	8340	3	0.628	1.883	0.000	-2.510	-0.000	0.000
8375	8339	8338	8341	3	0.628	1.883	0.000	-2.510	-0.000	0.000
8382	8341	8338	8337	3	0.628	1.883	0.000	-2.510	-0.000	0.000
8373	8337	8338	8341	3	0.628	1.883	0.000	-2.510	-0.000	0.000
8380	8340	8338	8339	3	0.628	1.883	0.000	-2.510	-0.000	0.000
8381	8341	8338	8340	3	0.628	1.883	0.000	-2.510	-0.000	0.000
8380	8340	8338	8341	3	0.628	1.883	0.000	-2.510	-0.000	0.000
8349	8288	8287	8348	3	0.628	1.883	0.000	-2.510	-0.000	0.000
8350	8288	8287	8347	3	0.628	1.883	0.000	-2.510	-0.000	0.000
8349	8288	8287	8347	3	0.628	1.883	0.000	-2.510	-0.000	0.000
8350	8288	8287	8348	3	0.628	1.883	0.000	-2.510	-0.000	0.000
8350	8288	8287	8286	3	-4.096	5.088	2.966	-3.958	-0.000	0.000
8349	8288	8287	8286	3	-4.096	5.088	2.966	-3.958	-0.000	0.000
8348	8287	8288	8289	3	0.979	2.937	0.000	-3.916	-0.000	0.000
8347	8287	8288	8289	3	0.979	2.937	0.000	-3.916	-0.000	0.000
8348	8287	8286	8303	3	1.172	3.515	0.000	-4.686	-0.000	0.000
8344	8285	8286	8303	3	1.172	3.515	0.000	-4.686	-0.000	0.000
8347	8287	8286	8303	3	1.172	3.515	0.000	-4.686	-0.000	0.000
8345	8285	8286	8303	3	1.172	3.515	0.000	-4.686	-0.000	0.000
8346	8285	8286	8303	3	1.172	3.515	0.000	-4.686	-0.000	0.000
8347	8287	8286	8285	3	1.172	3.515	0.000	-4.686	-0.000	0.000
8345	8285	8286	8287	3	1.172	3.515	0.000	-4.686	-0.000	0.000
8348	8287	8286	8285	3	1.172	3.515	0.000	-4.686	-0.000	0.000
8346	8285	8286	8287	3	1.172	3.515	0.000	-4.686	-0.000	0.000
8344	8285	8286	8287	3	1.172	3.515	0.000	-4.686	-0.000	0.000
8349	8288	8289	8290	3	1.590	4.770	0.000	-6.360	-0.000	0.000
8350	8288	8289	8290	3	1.590	4.770	0.000	-6.360	-0.000	0.000
8355	8298	8297	8299	3	0.0	0.0	0.0	-0.0	-0.0	0.0
8355	8298	8297	8296	3	0.0	0.0	0.0	-0.0	-0.0	0.0
8298	8297	8296	8295	3	0.0	0.0	0.0	-0.0	-0.0	0.0
8325	8326	8315	8314	3	2.874	0.582	2.092	-5.548	-0.000	0.000
8325	8326	8315	8316	3	1.046	-1.046	0.000	-0.000	-0.000	0.000
8289	8288	8287	8286	3	16.736	-16.736	0.000	-0.000	-0.000	0.000
8325	8319	8316	8315	3	1.046	-1.046	0.000	-0.000	-0.000	0.000
8325	8319	8316	8317	3	9.079	0.000	-9.079	-0.000	-0.000	0.000
1	2	1997	1999	3	12.552	0.0	-12.552	-0.0	-0.0	0.0
1	2	1997	1996	3	12.552	0.0	-12.552	-0.0	-0.0	0.0
29	30	2097	2099	3	12.552	0.0	-12.552	-0.0	-0.0	0.0
29	30	2097	2096	3	12.552	0.0	-12.552	-0.0	-0.0	0.0
57	58	2197	2199	3	12.552	0.0	-12.552	-0.0	-0.0	0.0
57	58	2197	2196	3	12.552	0.0	-12.552	-0.0	-0.0	0.0
85	86	2297	2299	3	12.552	0.0	-12.552	-0.0	-0.0	0.0
85	86	2297	2296	3	12.552	0.0	-12.552	-0.0	-0.0	0.0
113	114	2397	2399	3	12.552	0.0	-12.552	-0.0	-0.0	0.0
113	114	2397	2396	3	12.552	0.0	-12.552	-0.0	-0.0	0.0
141	142	2497	2499	3	12.552	0.0	-12.552	-0.0	-0.0	0.0
141	142	2497	2496	3	12.552	0.0	-12.552	-0.0	-0.0	0.0
169	170	2597	2599	3	12.552	0.0	-12.552	-0.0	-0.0	0.0
169	170	2597	2596	3	12.552	0.0	-12.552	-0.0	-0.0	0.0
197	198	2697	2699	3	12.552	0.0	-12.552	-0.0	-0.0	0.0
197	198	2697	2696	3	12.552	0.0	-12.552	-0.0	-0.0	0.0
225	226	2797	2799	3	12.552	0.0	-12.552	-0.0	-0.0	0.0
225	226	2797	2796	3	12.552	0.0	-12.552	-0.0	-0.0	0.0
253	254	2897	2899	3	12.552	0.0	-12.552	-0.0	-0.0	0.0
253	254	2897	2896	3	12.552	0.0	-12.552	-0.0	-0.0	0.0
281	282	2997	2999	3	12.552	0.0	-12.552	-0.0	-0.0	0.0
281	282	2997	2996	3	12.552	0.0	-12.552	-0.0	-0.0	0.0
309	310	3097	3099	3	12.552	0.0	-12.552	-0.0	-0.0	0.0
309	310	3097	3096	3	12.552	0.0	-12.552	-0.0	-0.0	0.0
337	338	3197	3199	3	12.552	0.0	-12.552	-0.0	-0.0	0.0
337	338	3197	3196	3	12.552	0.0	-12.552	-0.0	-0.0	0.0
365	366	3297	3299	3	12.552	0.0	-12.552	-0.0	-0.0	0.0
365	366	3297	3296	3	12.552	0.0	-12.552	-0.0	-0.0	0.0
393	394	3397	3399	3	12.552	0.0	-12.552	-0.0	-0.0	0.0
393	394	3397	3396	3	12.552	0.0	-12.552	-0.0	-0.0	0.0
421	422	3497	3499	3	12.552	0.0	-12.552	-0.0	-0.0	0.0
421	422	3497	3496	3	12.552	0.0	-12.552	-0.0	-0.0	0.0
449	450	3597	3599	3	12.552	0.0	-12.552	-0.0	-0.0	0.0
449	450	3597	3596	3	12.552	0.0	-12.552	-0.0	-0.0	0.0
477	478	3697	3699	3	12.552	0.0	-12.552	-0.0	-0.0	0.0
477	478	3697	3696	3	12.552	0.0	-12.552	-0.0	-0.0	0.0
505	506	3797	3799	3	12.552	0.0	-12.552	-0.0	-0.0	0.0
505	506	3797	3796	3	12.552	0.0	-12.552	-0.0	-0.0	0.0
533	534	3897	3899	3	12.552	0.0	-12.552	-0.0	-0.0	0.0
533	534	3897	3896	3	12.552	0.0	-12.552	-0.0	-0.0	0.0
561	562	3997	3999	3	12.552	0.0	-12.552	-0.0	-0.0	0.0
561	562	3997	3996	3	12.552	0.0	-12.552	-0.0	-0.0	0.0
589	590	4097	4099	3	12.552	0.0	-12.552	-0.0	-0.0	0.0
589	590	4097	4096	3	12.552	0.0	-12.552	-0.0	-0.0	0.0
617	618	4197	4199	3	12.552	0.0	-12.552	-0.0	-0.0	0.0
617	618	4197	4196	3	12.552	0.0	-12.552	-0.0	-0.0	0.0
645	646	4297	4299	3	12.552	0.0	-12.552	-0.0	-0.0	0.0
645	646	4297	4296	3	12.552	0.0	-12.552	-0.0	-0.0	0.0
673	674	4397	4399	3	12.552	0.0	-12.552	-0.0	-0.0	0.0
673	674	4397	4396	3	12.552	0.0	-12.552	-0.0	-0.0	0.0
701	702	4497	4499	3	12.552	0.0	-12.552	-0.0	-0.0	0.0
701	702	4497	4496	3	12.552	0.0	-12.552	-0.0	-0.0	0.0
729	730	4597	4599	3	12.552	0.0	-12.552	-0.0	-0.0	0.0
729	730	4597	4596	3	12.552	0.0	-12.552	-0.0	-0.0	0.0
757	758	4697	4699	3	12.552	0.0	-12.552	-0.0	-0.0	0.0
757	758	4697	4696	3	12.552	0.0	-12.552	-0.0	-0.0	0.0
785	786	4797	4799	3	12.552	0.0	-12.552	-0.0	-0.0	0.0
785	786	4797	4796	3	12.552	0.0	-12.552	-0.0	-0.0	0.0
813	814	4897	4899	3	12.552	0.0	-12.552	-0.0	-0.0	0.0
813	814	4897	4896	3	12.552	0.0	-12.552	-0.0	-0.0	0.0
841	842	4997	4999	3	12.552	0.0	-12.552	-0.0	-0.0	0.0
841	842	4997	4996	3	12.552	0.0	-12.552	-0.0	-0.0	0.0
869	870	5097	5099	3	12.552	0.0	-12.552	-0.0	-0.0	0.0
869	870	5097	5096	3	12.552	0.0	-12.552	-0.0	-0.0	0.0
897	898	5197	5199	3	12.552	0.0	-12.552	-0.0	-0.0	0.0
897	898	5197	5196	3	12.552	0.0	-12.552	-0.0	-0.0	0.0
925	926	5297	5299	3	12.552	0.0	-12.552	-0.0	-0.0	0.0
925	926	5297	5296	3	12.552	0.0	-12.552	-0.0	-0.0	0.0
953	954	5397	5399	3	12.552	0.0	-12.552	-0.0	-0.0	0.0
953	954	5397	5396	3	12.552	0.0	-12.552	-0.0	-0.0	0.0
981	982	5497	5499	3	12.552	0.0	-12.552	-0.0	-0.0	0.0
981	982	5497	5496	3	12.552	0.0	-12.552	-0.0	-0.0	0.0
1009	1010	5597	5599	3	12.552	0.0	-12.552	-0.0	-0.0	0.0
1009	1010	5597	5596	3	12.552	0.0	-12.552	-0.0	-0.0	0.0
1037	1038	5697	5699	3	12.552	0.0	-12.552	-0.0	-0.0	0.0
1037	1038	5697	5696	3	12.552	0.0	-12.552	-0.0	-0.0	0.0
1065	1066	5797	5799	3	12.552	0.0	-12.552	-0.0	-0.0	0.0
1065	1066	5797	5796	3	12.552	0.0	-12.552	-0.0	-0.0	0.0
1093	1094	5897	5899	3	12.552	0.0	-12.552	-0.0	-0.0	0.0
1093	1094	5897	5896	3	12.552	0.0	-12.552	-0.0	-0.0	0.0
1121	1122	5997	5999	3	12.552	0.0	-12.552	-0.0	-0.0	0.0
1121	1122	5997	5996	3	12.552	0.0	-12.552	-0.0	-0.0	0.0
1149	1150	6097	6099	3	12.552	0.0	-12.552	-0.0	-0.0	0.0
1149	1150	6097	6096	3	12.552	0.0	-12.552	-0.0	-0.0	0.0
1177	1178	6197	6199	3	12.552	0.0	-12.552	-0.0	-0.0	0.0
1177	1178	6197	6196	3	12.552	0.0	-12.552	-0.0	-0.0	0.0
1205	1206	6297	6299	3	12.552	0.0	-12.552	-0.0	-0.0	0.0
1205	1206	6297	6296	3	12.552	0.0	-12.552	-0.0	-0.0	0.0
1233	1234	6397	6399	3	12.552	0.0	-12.552	-0.0	-0.0	0.0
1233	1234	6397	6396	3	12.552	0.0	-12.552	-0.0	-0.0	0.0
1261	1262	6497	6499	3	12.552	0.0	-12.552	-0.0	-0.0	0.0
1261	1262	6497	6496	3	12.552	0.0	-12.552	-0.0	-0.0	0.0
1289	1290	6597	6599	3	12.552	0.0	-12.552	-0.0	-0.0	0.0
1289	1290	6597	6596	3	12.552	0.0	-12.552	-0.0	-0.0	0.0
1317	1318	6697	6699	3	12.552	0.0	-12.552	-0.0	-0.0	0.0
1317	1318	6697	6696	3	12.552	0.0	-12.552	-0.0	-0.0	0.0
1345	1346	6797	6799	3	12.552	0.0	-12.552	-0.0	-0.0	0.0
1345	1346	6797	6796	3	12.552	0.0	-12.552	-0.0	-0.0	0.0
1373	1374	6897	6899	3	12.552	0.0	-12.552	-0.0	-0.0	0.0
1373	1374	6897	6896	3	12.552	0.0	-12.552	-0.0	-0.0	0.0
1401	1402	6997	6999	3	12.552	0.0	-12.552	-0.0	-0.0	0.0
1401	1402	6997	6996	3	12.552	0.0	-12.552	-0.0	-0.0	0.0
1429	1430	7097	7099	3	12.552	0.0	-12.552	-0.0	-0.0	0.0
1429	1430	7097	7096	3	12.552	0.0	-12.552	-0.0	-0.0	0.0
1457	1458	7197	7199	3	12.552	0.0	-12.552	-0.0	-0.0	0.0
1457	1458	7197	7196	3	12.552	0.0	-12.552	-0.0	-0.0	0.0
1485	1486	7297	7299	3	12.552	0.0	-12.552	-0.0	-0.0	0.0
1485	1486	7297	7296	3	12.552	0.0	-12.552	-0.0	-0.0	0.0
1513	1514	7397	7399	3	12.552	0.0	-12.552	-0.0	-0.0	0.0
1513	1514	7397	7396	3	12.552	0.0	-12.552	-0.0	-0.0	0.0
1541	1542	7497	7499	3	12.552	0.0	-12.552	-0.0	-0.0	0.0
1541	1542	7497	7496	3	12.552	0.0	-12.552	-0.0	-0.0	0.0
1569	1570	7597	7599	3	12.552	0.0	-12.552	-0.0	-0.0	0.0
1569	1570	7597	7596	3	12.552	0.0	-12.552	-0.0	-0.0	0.0
1597	1598	7697	7699	3	12.552	0.0	-12.552	-0.0	-0.0	0.0
1597	1598	7697	7696	3	12.552	0.0	-12.552	-0.0	-0.0	0.0
1625	1626	7797	7799	3	12.552	0.0	-12.552	-0.0	-0.0	0.0
1625	1626	7797	7796	3	12.552	0.0	-12.552	-0.0	-0.0	0.0
1653	1654	7897	7899	3	12.552	0.0	-12.552	-0.0	-0.0	0.0
1653	1654	7897	7896	3	12.552	0.0	-12.552	-0.0	-0.0	0.0
1681	1682	7997	7999	3	12.552	0.0	-12.552	-0.0	-0.0	0.0
1681	1682	7997	7996	3	12.552	0.0	-12.552	-0.0	-0.0	0.0
1709	1710	8097	8099	3	12.552	0.0	-12.552	-0.0	-0.0	0.0
1709	1710	8097	8096	3	12.552	0.0	-12.552	-0.0	-0.0	0.0
1737	1738	8197	8199	3	12.552	0.0	-12.552	-0.0	-0.0	0.0
1737	1738	8197	8196	3	12.552	0.0	-12.552	-0.0	-0.0	0.0
1765	1766	8297	8299	3	12.552	0.0	-12.552	-0.0	-0.0	0.0
1765	1766	8297	8296	3	12.552	0.0	-12.552	-0.0	-0.0	0.0
